2544
 Atoms. Timestep: 0
1 49.294 8.08552 6.58678
1 48.3691 9.0862 6.04594
1 47.8293 10.0587 6.8769
2 48.1374 10.103 7.90677
1 46.8753 10.9635 6.42739
2 46.4367 11.7151 7.07796
1 46.2876 10.8026 5.16663
2 45.52 11.4258 4.87068
1 46.758 9.7358 4.37164
1 47.8012 8.90825 4.79175
2 48.1096 7.99847 4.21947
1 46.0939 9.42141 3.07578
1 48.7491 5.65578 8.65071
1 47.3921 5.33851 9.12243
1 46.8699 5.99869 10.2422
2 47.5148 6.69745 10.79
1 45.6031 5.75182 10.6609
2 45.2602 6.13278 11.6188
1 44.751 4.89192 9.96739
2 43.7443 4.62436 10.3175
1 45.2145 4.35218 8.73653
1 46.557 4.52055 8.36431
2 46.8968 3.91636 7.54789
1 44.3957 3.22276 8.04837
1 3.4222 4.96451 8.17787
1 4.53912 4.0731 8.61903
1 5.14033 4.22138 9.814
2 4.66833 4.92077 10.4356
1 6.29115 3.43512 10.2023
2 6.6851 3.51034 11.2416
1 6.84136 2.46375 9.27639
2 7.63468 1.76628 9.61162
1 6.23197 2.34721 8.02743
1 5.09184 3.08564 7.73658
2 4.53333 2.89969 6.7493
1 6.74578 1.38077 7.05292
1 2.67242 8.0259 5.69736
1 3.48593 8.77749 4.74648
1 3.91771 10.0408 5.12522
2 3.58945 10.5414 6.0063
1 4.81073 10.7418 4.30821
2 5.0863 11.7116 4.69147
1 5.36443 10.1471 3.21518
2 6.17011 10.7167 2.66473
1 5.04009 8.82073 2.91031
1 3.96492 8.23522 3.55608
2 3.59964 7.33046 3.16936
1 5.62523 8.17108 1.69158
1 42.896 7.42369 49.4457
1 41.8158 6.7462 48.6802
1 40.5526 7.41243 48.5384
2 40.3458 8.39166 48.9308
1 39.5017 6.70961 47.8014
2 38.4442 7.13644 47.8327
1 39.7657 5.53617 47.0982
2 39.0229 5.07031 46.5732
1 40.9909 4.90521 47.2223
1 42.0151 5.47451 48.0247
2 42.9825 4.98667 48.0482
1 41.2567 3.61958 46.5426
1 43.4561 7.4466 2.69383
1 42.6682 6.9386 3.82743
1 41.9982 7.781 4.67351
2 41.8576 8.81807 4.42938
1 41.176 7.29849 5.70177
2 40.5254 8.00541 6.19717
1 41.3164 5.95945 6.16113
2 40.7616 5.60194 7.00716
1 42.1402 5.10283 5.38021
1 42.8296 5.64221 4.22202
2 43.4259 4.95754 3.61797
1 42.393 3.75881 5.87806
1 46.372 9.09096 48.6121
1 47.0534 9.6141 47.3806
1 47.0774 10.9705 47.0238
2 46.5647 11.7118 47.6514
1 47.5774 11.3702 45.7616
2 47.5196 12.4168 45.4886
1 48.0688 10.4337 44.8895
2 48.5842 10.8692 43.9897
1 48.0374 9.06987 45.178
1 47.5725 8.6609 46.4373
2 47.4299 7.59897 46.6272
1 48.5012 8.03577 44.2162
1 41.6243 48.8962 5.83374
1 40.9424 47.7112 5.2276
1 39.693 47.234 5.71331
2 39.0791 47.7406 6.45147
1 39.0887 46.0854 5.149
2 38.1333 45.7672 5.39961
1 39.8291 45.3212 4.24429
2 39.4237 44.4117 3.78697
1 41.1093 45.6915 3.80668
1 41.5931 46.942 4.23925
2 42.5032 47.3238 3.81114
1 41.7621 44.9543 2.6856
1 44.4353 49.7401 8.74049
1 45.3688 49.0759 9.62461
1 45.3762 49.2103 11.0359
2 44.5708 49.8496 11.5362
1 46.3652 48.571 11.834
2 46.2589 48.7574 12.8933
1 47.2805 47.7162 11.2014
2 47.8978 47.0416 11.849
1 47.3663 47.6809 9.81029
1 46.4423 48.4232 9.02784
2 46.4778 48.3446 7.91111
1 48.2487 46.7446 9.15393
1 46.8528 5.40328 41.7449
1 45.4763 4.96843 41.3417
1 44.9398 5.08511 40.0281
2 45.5635 5.46013 39.3027
1 43.6971 4.49489 39.7244
2 43.378 4.47814 38.6838
1 42.9462 3.88393 40.784
2 41.9419 3.45952 40.5389
1 43.4792 3.7628 42.0494
1 44.7081 4.33054 42.3699
2 45.1039 4.30722 43.4014
1 42.7755 2.95524 43.1109
1 1.9 7.32124 43.4448
1 3.26749 7.82012 43.8662
1 4.11126 8.44152 42.9646
2 3.78827 8.66758 41.977
1 5.34125 8.95414 43.3594
2 5.95768 9.5634 42.6903
1 5.74371 8.75743 44.6582
2 6.78742 9.05262 44.8467
1 4.93394 8.19367 45.661
1 3.69488 7.64713 45.1809
2 3.04026 7.25004 45.9907
1 5.34303 8.00545 47.0638
1 8.32745 5.61145 0.562235
1 9.2452 4.5926 1.20913
1 10.5879 4.82399 1.39445
2 10.9915 5.79631 1.12326
1 11.396 4.00767 2.13788
2 12.3985 4.28065 2.32389
1 10.8329 2.95147 2.84869
2 11.5039 2.23771 3.3847
1 9.46851 2.6561 2.66773
1 8.70523 3.4881 1.80659
2 7.69258 3.2464 1.61451
1 8.84406 1.65319 3.61122
3 49.8671 7.27299 5.75962
3 49.4327 7.93286 7.82004
3 49.3927 4.9057 7.76207
3 49.2529 6.85851 8.84596
3 3.14929 5.14429 6.93371
3 2.7148 5.56593 9.02749
3 1.81671 7.19701 5.26432
3 2.87084 8.15494 6.96203
3 43.8438 6.62631 49.8721
3 42.8313 8.65275 49.6666
3 44.0595 6.63397 1.88934
3 43.6471 8.71809 2.56749
3 46.5945 8.53995 2.24774
3 44.9132 9.86578 2.86111
3 46.0257 7.87863 48.7268
3 45.992 9.91604 49.49
3 42.8286 49.1597 5.5184
3 41.0809 49.6677 6.6947
3 44.9228 0.579587 7.56406
3 43.2963 0.409812 9.13023
3 44.9796 2.42541 7.22156
3 43.1891 3.12256 8.30359
3 43.2306 2.99559 5.26667
3 42.0466 3.43483 7.0996
3 47.2508 5.30995 42.9554
3 47.7019 5.82711 40.8689
3 49.1316 6.98881 44.6399
3 48.4327 8.24714 42.9189
3 1.10478 6.69582 44.2507
3 1.59785 7.35076 42.1801
3 1.03085 4.29863 42.4082
3 1.43401 6.07816 41.1546
3 4.72224 7.16928 47.8053
3 6.5883 8.28653 47.2925
3 5.2812 7.00337 1.41821
3 6.36633 8.85143 0.905093
3 7.2556 5.13928 49.9016
3 8.67689 6.75316 50.2087
3 6.99874 5.22323 48.1747
3 7.78011 7.14853 47.4026
3 43.3974 0.451422 43.9464
3 41.2306 49.7433 43.3756
3 41.3935 49.6347 46.4786
3 40.061 49.3733 44.8117
3 42.4334 3.33994 46.1855
3 40.2454 2.99922 46.0513
3 43.504 2.29662 43.9708
3 41.5148 2.86354 43.1205
3 0.723072 4.09585 4.96723
3 46.9879 5.80614 0.974766
3 45.6435 0.746499 4.35301
3 48.7067 3.68005 44.9715
3 4.00507 4.75142 49.8779
3 44.3379 1.01311 46.9832
4 1.15312 5.52213 6.35481
4 1.7152 7.25603 8.58667
4 45.6946 7.27863 0.789516
4 44.2989 9.87175 0.840055
4 44.1618 1.19261 5.7982
4 41.855 1.52192 8.004
4 49.1786 5.23342 43.6571
4 49.1827 7.12784 41.2687
4 5.49156 6.12657 49.3987
4 7.70155 8.20048 49.167
4 42.886 1.41925 45.778
4 40.2909 1.8102 44.3804
1 49.4429 42.9837 43.5698
1 0.546301 42.0207 44.4538
1 0.493655 40.6639 44.1443
2 49.6588 40.2517 43.1955
1 1.2372 39.7302 44.8404
2 1.14302 38.6859 44.5789
1 1.99033 40.1613 45.9036
2 2.52761 39.4202 46.4553
1 1.98855 41.4953 46.3272
1 1.25322 42.4298 45.6136
2 1.17881 43.459 45.8808
1 2.83177 41.902 47.4999
1 0.464558 45.4456 41.5267
1 1.80756 45.716 41.0722
1 2.29623 45.0169 39.9632
2 1.61004 44.3436 39.3915
1 3.60122 45.2008 39.6165
2 3.97515 44.5675 38.8348
1 4.45999 46.0766 40.2386
2 5.49764 46.1494 39.8867
1 3.96296 46.8422 41.3043
1 2.58698 46.7359 41.6818
2 2.25881 47.296 42.589
1 4.89838 47.7012 42.1206
1 45.756 46.0282 41.6485
1 44.4414 46.7655 41.4982
1 43.5374 46.2576 40.5615
2 43.8002 45.5649 39.7032
1 42.2924 46.8366 40.4793
2 41.5136 46.4535 39.8583
1 41.9021 47.8218 41.3339
2 40.896 48.1895 41.2684
1 42.8144 48.4681 42.1761
1 44.0321 47.7769 42.3775
2 44.7711 48.1979 43.1037
1 42.4484 49.4257 43.2203
1 46.4937 43.1051 44.2662
1 45.7544 42.2118 45.2653
1 45.7126 40.8644 45.0763
2 46.1145 40.4839 44.2073
1 44.9669 40.0536 45.9216
2 44.9314 39.0073 45.7759
1 44.4727 40.5745 47.1096
2 44.0578 39.9764 47.8686
1 44.5878 41.9106 47.3815
1 45.2382 42.7266 46.43
2 45.3702 43.845 46.5622
1 44.0093 42.4851 48.6386
1 6.14494 43.5658 1.36799
1 7.07406 44.0392 2.34867
1 7.92225 43.1517 2.99941
2 7.96434 42.0906 2.84263
1 8.8853 43.6215 3.84468
2 9.53832 42.8647 4.19601
1 9.00304 44.9999 4.15121
2 9.8267 45.2531 4.81844
1 8.10466 45.8832 3.50961
1 7.17112 45.4063 2.58264
2 6.41989 45.9618 2.14089
1 7.96287 47.2382 4.03404
1 6.41019 43.6881 48.1742
1 7.38421 44.3435 47.3245
1 8.66442 43.7684 47.1312
2 8.89712 42.914 47.705
1 9.52959 44.3392 46.2118
2 10.5313 43.9091 46.0688
1 9.16622 45.5051 45.5262
2 9.89559 45.9734 44.8705
1 7.92718 46.0619 45.6804
1 6.98731 45.419 46.5147
2 6.06279 45.9314 46.6874
1 7.50205 47.3626 45.0851
1 3.62559 41.8658 2.10906
1 3.32123 41.6482 3.58138
1 3.86328 40.5845 4.30705
2 4.6549 40.006 3.80857
1 3.48499 40.2978 5.60032
2 3.86479 39.4456 6.17616
1 2.70706 41.2172 6.30876
2 2.49069 40.9891 7.37723
1 2.10986 42.3259 5.58905
1 2.42277 42.5029 4.26423
2 2.04579 43.3727 3.7626
1 1.36172 43.2693 6.40366
1 7.86252 1.83435 44.2638
1 8.38404 3.22056 44.6435
1 9.35412 3.82263 43.8644
2 9.80186 3.21666 43.0884
1 9.83336 5.10113 44.1757
2 10.5036 5.64216 43.4732
1 9.2759 5.78085 45.2794
2 9.51898 6.81809 45.4199
1 8.30198 5.16588 46.109
1 7.90885 3.84054 45.7986
2 7.07949 3.30787 46.2929
1 7.68824 5.83954 47.3016
1 5.39599 1.45536 42.2005
1 4.80913 2.51893 41.3637
1 5.37472 2.89839 40.1462
2 6.26479 2.44583 39.6989
1 4.83194 4.0299 39.494
2 5.34282 4.34919 38.6037
1 3.71351 4.69191 39.9814
2 3.31521 5.57095 39.4508
1 3.0054 4.24419 41.0831
1 3.62381 3.18023 41.8204
2 3.28228 2.8841 42.7815
1 1.74561 4.8964 41.5282
1 2.51948 45.3108 8.30059
1 3.99288 45.4739 8.35713
1 4.802 44.699 9.21623
2 4.33 43.8741 9.74253
1 6.16154 44.8992 9.27495
2 6.84356 44.1712 9.72491
1 6.75795 45.9363 8.50455
2 7.8502 46.0568 8.5748
1 5.96154 46.7746 7.7064
1 4.61382 46.4954 7.56044
2 3.97828 47.0734 6.84303
1 6.58048 47.8411 6.8737
1 47.8373 43.5332 6.60483
1 46.7886 42.7098 5.88451
1 46.3873 41.4436 6.37619
2 46.8294 41.1044 7.28132
1 45.4166 40.6949 5.71823
2 45.0816 39.7483 6.10246
1 44.7792 41.2349 4.55911
2 44.0035 40.6646 4.14501
1 45.189 42.4781 4.05917
1 46.1871 43.1773 4.72692
2 46.4566 44.1241 4.18694
1 44.4633 43.0783 2.88319
1 41.6943 45.0379 48.8866
1 40.848 45.6718 47.8595
1 39.705 44.9977 47.3639
2 39.497 44.0048 47.6784
1 38.8578 45.6013 46.4264
2 37.9697 45.0836 46.1079
1 39.1513 46.9217 45.9671
2 38.4705 47.3757 45.2553
1 40.2583 47.5794 46.4758
1 41.107 46.9865 47.4439
2 42.0093 47.5472 47.7365
1 40.546 48.9346 45.8973
3 49.5472 44.2096 43.8347
3 48.4701 42.5395 42.8057
3 49.9051 45.5826 42.7915
3 49.1872 44.7748 40.9019
3 46.7633 46.7053 42.0575
3 45.8484 44.765 41.6166
3 46.8288 44.3152 44.5743
3 46.7947 42.6665 43.1202
3 5.5379 44.433 0.631472
3 6.01743 42.3186 1.14317
3 5.47626 44.3905 48.7178
3 6.40887 42.3635 48.3034
3 2.81621 43.1034 47.9332
3 3.59493 41.0502 48.0469
3 3.14447 42.835 1.46234
3 4.57384 41.2593 1.52739
3 7.08227 1.19926 45.0796
3 7.95337 1.41218 43.1114
3 4.64733 0.846363 43.0335
3 6.62177 1.11121 42.0891
3 4.43865 48.5621 42.9734
3 6.11477 47.7368 41.8588
3 6.27964 47.4951 44.842
3 8.31751 48.0688 44.4775
3 1.83822 46.2328 7.72677
3 2.01102 44.2381 8.79493
3 0.794916 44.2589 5.80559
3 1.29532 43.1405 7.6962
3 48.6078 44.3363 5.9815
3 48.0357 43.3682 7.85751
3 48.0797 46.5407 7.89513
3 49.0881 46.076 9.80928
3 44.3284 44.3435 2.67843
3 43.9723 42.2742 2.00621
3 44.8023 43.0624 49.4252
3 42.7378 42.5446 48.8462
3 42.6241 45.6664 49.4036
3 41.5457 43.7776 49.1785
3 42.9315 45.3242 2.35662
3 41.27 43.9101 2.1892
3 5.92392 0.661461 6.29527
3 7.96497 1.30919 6.86977
3 7.59141 1.76498 3.84547
3 9.51568 0.659417 4.04396
3 7.0492 47.9757 3.55073
3 8.60089 47.6188 5.08239
3 5.83712 48.6067 6.22279
3 7.87372 47.8417 6.72126
3 47.6867 47.241 44.9454
3 2.11368 45.1309 49.8588
3 4.27907 49.5187 46.1843
3 49.6456 47.5911 5.28194
3 45.7344 45.8987 50.0942
3 4.71739 0.435205 3.26429
4 47.9415 45.6537 43.4889
4 47.4894 43.7098 41.3709
4 3.68687 43.813 49.62
4 5.16919 41.0817 49.3648
4 5.5553 49.3823 44.5748
4 7.64249 48.9461 42.649
4 49.6321 46.0568 6.68099
4 49.5683 44.1642 9.12333
4 44.1485 44.8124 0.648932
4 42.2572 42.5624 0.987433
4 6.36531 49.6215 4.41576
4 8.98175 49.5254 5.86021
2 1.16695 44.8772 49.809
2 2.46537 45.9893 50.1942
2 47.8672 6.19556 1.03532
2 46.9989 4.84692 0.982479
2 45.1753 0.842229 46.5772
2 44.1084 1.29746 47.9244
2 48.7332 2.81122 44.5563
2 48.149 3.76076 45.7653
2 4.66283 1.16115 2.60914
2 4.06728 49.2775 3.14043
2 1.06305 4.21811 4.03707
2 49.6936 3.43603 5.31761
2 3.16457 5.25813 49.8255
2 4.0367 3.97259 0.545308
2 49.5404 47.3388 4.41019
2 49.2595 48.421 5.57561
2 45.5279 1.28562 3.55745
2 46.4944 0.648335 4.77365
2 46.228 45.8259 49.2954
2 46.2782 46.0389 1.02998
2 4.48178 0.725755 46.7549
2 4.06461 48.667 46.5833
2 47.2646 48.041 44.6646
2 48.0251 47.0607 45.8373
1 48.4993 17.7591 19.3893
1 48.0136 16.6835 20.3048
1 48.1034 15.297 19.9191
2 48.5039 14.9853 18.9527
1 47.5801 14.338 20.8483
2 47.5901 13.2776 20.5997
1 46.9264 14.7201 22.0059
2 46.5543 13.9166 22.6606
1 46.8941 16.1137 22.3855
1 47.4036 17.0888 21.5157
2 47.3031 18.098 21.7727
1 46.2704 16.4915 23.6689
1 47.4056 20.911 16.9473
1 46.2247 21.6813 16.5376
1 45.5855 21.6014 15.2878
2 46.0168 20.9773 14.5074
1 44.404 22.2643 15.0315
2 43.8958 22.0871 14.0816
1 43.792 23.0052 16.032
2 42.826 23.4361 15.8901
1 44.3007 23.0165 17.3256
1 45.5098 22.3258 17.5605
2 45.8339 22.1613 18.5827
1 43.5408 23.7183 18.4102
1 1.95563 20.6827 16.6772
1 3.13005 21.3007 16.0626
1 3.79713 20.5545 15.0436
2 3.42539 19.5667 14.6837
1 5.04612 21.0363 14.6603
2 5.56111 20.3994 13.9778
1 5.5783 22.214 15.1724
2 6.51706 22.5604 14.7763
1 4.78073 23.04 15.9979
1 3.60397 22.5586 16.4812
2 3.06309 23.0408 17.3529
1 5.34782 24.2443 16.745
1 1.95375 18.3143 18.5101
1 3.20551 17.7595 18.9819
1 3.87041 16.78 18.2081
2 3.58655 16.4919 17.2115
1 5.07843 16.2542 18.6493
2 5.59295 15.5551 18.0279
1 5.53118 16.5777 19.9031
2 6.37648 16.0228 20.3244
1 4.8763 17.5208 20.7383
1 3.71842 18.1236 20.2331
2 3.26484 18.9248 20.8393
1 5.4247 17.9532 22.1206
1 43.6578 18.4605 27.8944
1 43.0926 18.9864 29.2183
1 42.4193 18.1093 30.0868
2 42.1727 17.131 29.7977
1 41.895 18.6983 31.2862
2 41.1906 18.186 31.88
1 42.0899 20.032 31.6171
2 41.4753 20.4387 32.4482
1 42.899 20.7982 30.8303
1 43.3729 20.328 29.5801
2 44.0645 20.9203 28.9739
1 43.2203 22.1353 31.3046
1 43.1381 19.0478 24.7732
1 42.062 19.7728 24.1176
1 40.8101 19.1913 24.0264
2 40.7241 18.2874 24.4878
1 39.782 19.8333 23.3726
2 38.7594 19.3874 23.3598
1 39.9904 21.0009 22.5898
2 39.1995 21.4557 22.0041
1 41.2409 21.6102 22.6627
1 42.305 21.0052 23.471
2 43.1946 21.6388 23.7863
1 41.5393 22.8165 21.8669
1 46.3972 16.8386 27.9992
1 47.0097 16.4552 29.2858
1 46.5749 15.3051 29.9495
2 45.7801 14.6661 29.6553
1 47.0881 14.9979 31.217
2 46.7885 14.1527 31.8148
1 48.2463 15.7133 31.6518
2 48.6909 15.525 32.6335
1 48.7242 16.8171 30.9894
1 48.1609 17.1582 29.7465
2 48.4478 18.0572 29.2448
1 49.9169 17.6049 31.4937
1 41.2432 27.0411 21.5727
1 40.7744 28.2635 22.2256
1 39.474 28.7716 22.0391
2 38.7699 28.1372 21.5085
1 39.0079 29.8412 22.8608
2 37.9408 30.1186 22.7719
1 39.9046 30.4729 23.6684
2 39.5597 31.296 24.3171
1 41.239 30.1475 23.802
1 41.6644 29.0029 23.0507
2 42.613 28.658 23.2242
1 42.1578 30.8196 24.7162
1 42.8615 26.7541 18.6827
1 43.4261 27.805 17.7746
1 42.7698 28.1519 16.5848
2 41.8758 27.5194 16.3254
1 43.2788 29.1812 15.7626
2 42.8275 29.3995 14.8286
1 44.426 29.8522 16.1305
2 44.7733 30.6847 15.476
1 45.101 29.577 17.349
1 44.6177 28.4954 18.0762
2 45.1396 28.2157 18.9627
1 46.3229 30.2396 17.7094
1 49.5888 19.8177 33.7832
1 48.3151 20.3213 34.391
1 47.8112 19.8615 35.6333
2 48.3528 19.0591 36.1357
1 46.6631 20.4256 36.1373
2 46.256 20.0879 37.0994
1 45.9107 21.3848 35.4245
2 44.9487 21.6977 35.7695
1 46.3853 21.8148 34.1707
1 47.5999 21.3478 33.7199
2 47.9768 21.8463 32.8185
1 45.6312 22.8256 33.4442
1 3.52007 17.6426 30.6934
1 4.21088 16.8107 29.7274
1 4.61267 15.5564 30.0796
2 4.31616 15.0718 30.995
1 5.34232 14.8115 29.1603
2 5.53182 13.8041 29.3865
1 5.70142 15.3654 27.8974
2 6.19779 14.7199 27.1052
1 5.26313 16.6075 27.5097
1 4.49195 17.3566 28.444
2 4.06758 18.3149 28.1553
1 5.62005 17.1741 26.2363
1 7.83236 19.9409 22.3435
1 8.45637 20.6476 21.2419
1 9.34814 20.0318 20.3848
2 9.75439 19.0667 20.5745
1 9.66915 20.6246 19.1508
2 10.3903 20.228 18.4509
1 9.1766 21.8467 18.7992
2 9.43237 22.3495 17.8258
1 8.18452 22.4509 19.5732
1 7.91335 21.9438 20.8319
2 7.08615 22.449 21.3723
1 7.52835 23.7546 19.1836
3 49.0882 18.7275 19.864
3 48.4283 17.6042 18.1065
3 47.7086 20.8963 18.1793
3 48.1278 20.3091 16.1
3 1.414 21.2233 17.6991
3 1.52072 19.519 16.2205
3 1.28514 18.998 19.3604
3 1.59274 18.2487 17.2427
3 44.3387 19.2782 27.1502
3 43.7994 17.199 27.6946
3 44.0461 19.677 25.4435
3 43.0644 17.771 24.8613
3 45.8966 17.6807 23.8355
3 45.7818 15.6424 24.5082
3 46.9128 17.763 27.2797
3 45.2856 16.3381 27.6113
3 42.5067 26.8541 21.411
3 40.407 26.1585 21.1437
3 43.2965 26.6661 19.8982
3 42.0626 25.825 18.2175
3 44.0318 23.7688 19.5742
3 42.4126 24.2574 18.1776
3 42.1248 23.832 22.387
3 41.1034 22.857 20.6645
3 0.47593 20.5732 32.8549
3 0.404953 18.6313 33.9043
3 0.909267 18.3807 30.6877
3 0.687609 17.5631 32.7429
3 2.67307 18.5137 30.2457
3 3.66402 17.4105 31.9444
3 3.74938 20.7244 32.0067
3 3.48709 19.9797 34.0858
3 5.66318 18.3929 26.1375
3 6.10821 16.4754 25.2936
3 4.77536 18.6564 22.9596
3 6.65598 17.6049 22.3871
3 7.14538 20.5617 23.2263
3 8.06619 18.6709 22.4651
3 7.51403 20.5143 24.9519
3 8.66935 18.5959 25.2752
3 46.0559 25.4497 32.8967
3 44.3981 25.6835 34.3294
3 43.9736 26.1767 30.7769
3 42.1422 25.5939 31.7779
3 43.9818 22.8671 30.5826
3 42.9424 22.5403 32.562
3 46.2164 23.6705 32.6631
3 44.3841 22.8895 33.6307
3 49.8994 22.1927 20.1856
3 47.5313 19.8112 25.4986
3 45.094 24.9329 22.4279
3 1.25395 21.669 30.1877
3 4.28607 20.9591 25.2474
3 46.4774 24.6686 29.6463
4 49.5406 20.5686 18.9027
4 49.2897 18.648 16.5997
4 45.8976 18.5909 25.7204
4 44.1555 16.1781 25.7963
4 43.4333 24.9155 21.1359
4 40.8183 24.6678 19.6067
4 1.83322 20.1632 31.4162
4 2.56078 18.238 33.5665
4 5.66443 19.6303 24.5249
4 7.58183 17.3618 24.1769
4 45.1234 24.5349 31.1851
4 42.9384 24.4864 33.3707
1 2.87727 32.5314 31.4867
1 3.96739 33.2468 30.7115
1 4.98468 34.0187 31.3769
2 4.93328 34.0844 32.4703
1 6.02295 34.5957 30.6061
2 6.92019 34.9574 31.1289
1 6.05875 34.5787 29.2618
2 6.75836 35.1451 28.7478
1 5.08251 33.8151 28.5858
1 4.10044 33.0923 29.2987
2 3.41294 32.4817 28.7997
1 5.1947 33.5475 27.0743
1 3.55143 30.0971 33.0464
1 4.96837 29.8058 33.2291
1 5.85469 30.4962 34.1045
2 5.4988 31.248 34.7622
1 7.23142 30.2326 34.1201
2 7.91737 30.7327 34.8659
1 7.75371 29.2445 33.2812
2 8.79096 29.0978 33.2555
1 6.89377 28.408 32.5024
1 5.54132 28.7523 32.4322
2 4.88728 28.1034 31.8424
1 7.42989 27.1962 31.7897
1 49.0448 29.5271 34.1501
1 48.1108 28.6562 34.8661
1 47.8426 28.8152 36.2416
2 48.2721 29.6393 36.765
1 46.9474 27.9795 36.8838
2 46.6886 28.1654 37.9299
1 46.2537 26.9523 36.2086
2 45.4598 26.3552 36.751
1 46.4455 26.8224 34.8354
1 47.3348 27.7077 34.1621
2 47.5087 27.5996 33.0706
1 45.6146 25.8694 34.0497
1 49.3405 32.7279 31.313
1 48.3067 33.5101 30.6199
1 48.0449 34.8204 31.0123
2 48.7256 35.3076 31.6976
1 46.9387 35.4741 30.5135
2 46.7592 36.4907 30.8544
1 46.0623 34.8324 29.6055
2 45.2222 35.3348 29.1531
1 46.4559 33.5691 29.1011
1 47.5267 32.8534 29.6222
2 47.7608 31.8178 29.3931
1 45.598 32.966 28.0509
1 7.28345 31.5859 22.9147
1 8.1569 30.7914 21.9984
1 9.41348 31.1914 21.6794
2 9.96116 31.9229 22.2582
1 10.146 30.5425 20.718
2 11.1337 30.9466 20.4512
1 9.64104 29.4494 20.0273
2 10.1813 28.8558 19.2606
1 8.29705 29.0706 20.2881
1 7.59217 29.7148 21.2972
2 6.45081 29.5042 21.3993
1 7.68448 27.96 19.5373
1 7.54418 31.9538 26.1442
1 8.55542 31.3469 27.0508
1 9.77613 32.0062 27.271
2 10.0065 33.0121 26.7742
1 10.6893 31.4407 28.1691
2 11.5176 31.9936 28.614
1 10.4624 30.1636 28.7388
2 11.1199 29.729 29.4602
1 9.2601 29.4747 28.5001
1 8.36753 30.047 27.5706
2 7.43745 29.4576 27.2267
1 9.03144 28.1212 29.1049
1 3.89109 34.1842 23.0208
1 2.81903 34.6952 22.1145
1 2.62594 36.0805 21.8512
2 3.08876 36.8837 22.3578
1 1.56972 36.4662 20.9675
2 1.36309 37.5165 20.8074
1 0.866526 35.4644 20.2394
2 49.72 35.838 19.5276
1 1.1699 34.115 20.3897
1 2.11833 33.7546 21.3458
2 2.36066 32.6926 21.5661
1 0.413866 33.112 19.5837
1 9.57069 23.7848 28.3144
1 10.079 22.5968 27.5573
1 11.4435 22.1524 27.77
2 12.1597 22.7128 28.3537
1 11.8204 21.0226 27.0894
2 12.8096 20.6551 27.1822
1 10.8919 20.2475 26.3453
2 11.2632 19.2988 25.9887
1 9.60305 20.6986 26.1401
1 9.1922 21.8942 26.6978
2 8.17672 22.2575 26.6231
1 8.54784 19.8832 25.4388
1 7.68214 24.1202 32.027
1 7.07456 23.1756 33.0027
1 7.58962 23.0287 34.2726
2 8.4574 23.6618 34.5677
1 7.0665 22.188 35.2275
2 7.52958 22.2384 36.1964
1 5.88647 21.4852 34.9661
2 5.35597 20.9231 35.7561
1 5.26483 21.5778 33.6825
1 5.92643 22.4352 32.7083
2 5.46674 22.598 31.747
1 4.12742 20.6969 33.247
1 0.776909 30.3991 16.7121
1 1.80753 29.6494 15.9682
1 2.02722 29.8394 14.605
2 1.41267 30.6007 14.1204
1 3.06958 29.2394 13.8325
2 3.27736 29.6378 12.8822
1 3.92908 28.3738 14.4777
2 4.79797 28.0077 13.9677
1 3.75389 28.1183 15.8924
1 2.681 28.7154 16.6218
2 2.63208 28.579 17.7636
1 4.69609 27.3038 16.6247
1 47.0141 32.8556 19.7568
1 46.0618 33.5349 20.6925
1 45.5974 34.8734 20.4543
2 45.8231 35.449 19.5557
1 44.7552 35.5332 21.3745
2 44.5537 36.5094 21.1398
1 44.4421 34.9382 22.6316
2 43.7665 35.4366 23.2863
1 44.8241 33.626 22.8192
1 45.7299 32.9857 21.925
2 46.1761 32.0623 22.2639
1 44.501 32.9365 24.0917
1 42.5106 30.2824 27.8687
1 41.8298 29.3949 28.8436
1 40.4534 29.4955 29.0547
2 39.8522 30.1718 28.5599
1 39.7925 28.4499 29.7877
2 38.7103 28.5171 29.8925
1 40.5601 27.4069 30.3338
2 40.0119 26.6521 30.8472
1 41.965 27.4658 30.3241
1 42.6163 28.5273 29.6527
2 43.7196 28.4816 29.673
1 42.7432 26.3646 30.9935
3 2.0206 31.7859 30.8569
3 2.85931 32.5744 32.7723
3 2.84439 29.3593 32.3617
3 3.1103 31.1935 33.6415
3 48.8589 29.761 32.8942
3 0.379239 30.1042 34.7844
3 0.395722 31.8382 30.6893
3 49.3887 32.7532 32.5808
3 6.3757 30.9985 23.6244
3 7.51718 32.8465 23.091
3 6.69603 31.1949 25.5519
3 7.54821 33.1969 25.8891
3 4.4745 32.6308 26.4861
3 6.07786 34.1698 26.44
3 4.05018 32.946 23.1099
3 4.66755 34.9542 23.5943
3 8.32557 24.0937 28.303
3 10.2957 24.4079 29.1519
3 6.90294 24.7064 31.2088
3 8.89184 24.4196 32.0766
3 6.62107 26.3942 31.1799
3 8.65679 27.2294 31.5458
3 8.099 27.3544 28.621
3 9.74025 27.7324 30.1269
3 49.9554 29.9019 17.7726
3 49.9214 31.4563 16.2565
3 0.378453 31.9079 20.0132
3 49.3839 33.4863 18.5501
3 47.199 31.5999 19.9551
3 47.5582 33.4525 18.7426
3 46.7798 30.1114 18.8999
3 46.8234 31.1221 16.89
3 44.6239 31.6605 24.2235
3 43.9314 33.5848 25.0115
3 46.0484 32.2936 27.0609
3 44.363 33.1172 28.1687
3 43.7235 30.0924 27.5407
3 41.9242 31.2467 27.3559
3 43.4287 30.5883 24.5777
3 41.7707 31.5829 25.655
3 4.63892 24.9716 17.5496
3 6.61067 24.2879 16.8169
3 6.64434 24.3612 19.8909
3 7.70268 24.1651 17.9803
3 6.42903 27.7675 19.5983
3 8.36176 27.1588 18.8628
3 4.26399 26.4677 17.5352
3 5.9671 27.3843 16.4479
3 0.529553 28.6966 30.1196
3 3.24332 30.3324 24.6876
3 5.6669 25.1509 28.0428
3 49.349 28.7461 20.6007
3 46.5357 29.4549 26.0451
3 3.9951 25.7424 21.0082
4 0.989799 30.1049 31.5993
4 1.11211 31.8503 33.9659
4 4.78976 31.8206 24.6221
4 6.57607 34.316 24.3734
4 7.24896 25.5543 29.2674
4 9.93033 25.6942 30.7977
4 48.8651 30.3994 19.3829
4 48.3976 32.5197 16.9954
4 44.9792 30.8185 26.1087
4 42.9892 33.009 26.7034
4 5.32904 25.9377 19.3498
4 7.51596 26.1469 17.2109
2 2.80916 30.209 23.8155
2 3.1157 29.807 25.4573
2 48.1438 19.9748 24.7365
2 47.729 20.3239 26.3061
2 46.782 23.8464 29.2752
2 46.7759 25.5781 29.5082
2 0.862556 22.4249 30.6278
2 1.6499 21.7312 29.2681
2 3.39104 26.5332 21.2286
2 3.97468 24.9065 21.4007
2 49.9539 21.9979 21.152
2 49.7988 23.0384 19.8158
2 3.75149 21.5692 24.7001
2 4.04713 20.9388 26.1821
2 0.673733 28.3786 20.5896
2 48.6054 28.2385 20.8965
2 45.7923 25.4859 22.0455
2 45.3365 24.1241 22.8608
2 47.3224 29.7462 25.5492
2 46.557 28.9254 26.8725
2 5.48233 24.283 27.7272
2 5.0824 25.9034 27.855
2 0.463406 29.0212 29.2095
2 49.8904 27.8108 30.3951
1 33.8793 47.3765 21.8323
1 34.3157 46.2531 22.6371
1 35.6108 45.7199 22.4178
2 36.303 46.1177 21.7118
1 35.967 44.5602 23.0522
2 36.8624 44.0982 22.6931
1 35.1198 43.8848 23.9354
2 35.4269 42.8517 24.2433
1 33.8261 44.3851 24.1306
1 33.4479 45.5951 23.4816
2 32.4689 46.0805 23.6489
1 32.8888 43.6102 24.9707
1 31.8391 47.8592 18.3162
1 31.127 47.002 17.3284
1 31.8537 46.4431 16.2237
2 32.8706 46.7014 16.0085
1 31.1906 45.5016 15.4147
2 31.6985 44.9859 14.6615
1 29.9371 44.9985 15.7673
2 29.6157 44.2049 15.2307
1 29.2252 45.5197 16.7976
1 29.8207 46.5729 17.5732
2 29.2763 46.8437 18.4274
1 27.9163 44.9362 17.2053
1 32.3697 1.43681 18.5922
1 31.8887 2.52326 17.6433
1 32.7523 3.11474 16.701
2 33.749 2.73084 16.6287
1 32.3603 4.15068 15.8998
2 33.0104 4.61491 15.1362
1 31.1201 4.67663 16.0421
2 30.8371 5.60432 15.4702
1 30.146 3.96674 16.7867
1 30.544 2.96783 17.6698
2 29.8881 2.42596 18.2945
1 28.7346 4.40926 16.9387
1 34.2158 1.97839 21.1244
1 34.5643 3.36816 21.5065
1 35.5798 4.06704 20.9114
2 36.3102 3.69002 20.2368
1 35.8953 5.37757 21.2634
2 36.7676 5.93673 20.7846
1 35.0673 6.07142 22.1782
2 35.2665 7.03789 22.4335
1 33.9709 5.37288 22.7588
1 33.805 4.04242 22.4811
2 32.9955 3.551 22.9566
1 33.0995 6.00303 23.7687
1 29.9519 41.4883 28.686
1 29.3606 41.2638 29.9834
1 30.0595 40.5812 30.9904
2 31.0421 40.1549 30.8596
1 29.5811 40.4228 32.2698
2 30.2196 39.9241 33.0421
1 28.4159 41.0694 32.6859
2 28.135 40.9991 33.7929
1 27.7004 41.8372 31.7178
1 28.1798 41.8993 30.3825
2 27.5591 42.3408 29.5721
1 26.5903 42.7571 32.1401
1 29.4482 41.4523 24.5081
1 28.7483 40.9369 23.3248
1 28.5206 39.5799 23.1238
2 28.8233 38.9166 23.914
1 28.0175 39.0983 21.8961
2 27.9261 38.0336 21.7786
1 27.5928 40.0309 20.929
2 27.323 39.6146 19.9817
1 27.7032 41.4011 21.1535
1 28.3262 41.8125 22.3129
2 28.4121 42.8321 22.4855
1 27.1719 42.3223 20.1088
1 32.4141 43.6524 28.1388
1 33.0015 44.3245 29.2866
1 33.8315 43.6219 30.1531
2 34.0194 42.5878 29.9891
1 34.4615 44.2399 31.2096
2 35.1313 43.6708 31.7959
1 34.3216 45.5952 31.3912
2 34.8366 46.0574 32.2265
1 33.3069 46.2926 30.721
1 32.6562 45.6852 29.6053
2 31.9517 46.1653 28.9805
1 33.0736 47.6929 31.1117
1 24.0755 42.4519 19.6634
1 23.1051 41.6297 20.3583
1 23.1672 40.2321 20.2142
2 23.7902 39.746 19.4418
1 22.5558 39.4306 21.1799
2 22.6254 38.3027 21.1245
1 21.7161 39.9731 22.1371
2 21.1988 39.2672 22.7594
1 21.5617 41.3624 22.2778
1 22.2345 42.2146 21.3415
2 22.1792 43.2775 21.4444
1 20.7994 41.9669 23.4076
1 23.6209 44.7045 17.4847
1 22.4305 45.2949 16.813
1 22.1767 45.0429 15.4585
2 22.7837 44.4602 14.8349
1 21.2113 45.7519 14.8295
2 21.0707 45.6618 13.6965
1 20.3469 46.5619 15.4774
2 19.5856 47.0931 14.945
1 20.5013 46.7675 16.8757
1 21.5976 46.1626 17.5252
2 21.7888 46.3655 18.5565
1 19.6241 47.7465 17.6078
1 31.0124 48.4365 33.1925
1 30.2886 47.3194 33.9319
1 31.0256 46.6149 34.9434
2 32.0169 46.9689 35.1941
1 30.4405 45.5033 35.4917
2 31.0213 44.9715 36.2465
1 29.1565 45.1113 35.2116
2 28.6505 44.2226 35.6712
1 28.3738 45.8067 34.2108
1 28.965 46.923 33.5994
2 28.363 47.4388 32.7624
1 26.9868 45.4479 33.845
1 33.529 2.37417 30.3288
1 34.1817 3.55121 29.598
1 35.4694 4.1166 29.9003
2 35.9566 3.79257 30.8117
1 35.9317 5.25403 29.1994
2 36.8771 5.71127 29.4894
1 35.1774 5.77531 28.1291
2 35.5352 6.62518 27.5941
1 33.9424 5.29991 27.8496
1 33.4634 4.16245 28.5394
2 32.5086 3.79935 28.2528
1 33.0793 6.05665 26.8926
1 30.8047 7.957 22.7961
1 30.466 8.21859 21.3138
1 31.3139 9.059 20.5603
2 32.1843 9.53803 21.0575
1 30.9973 9.264 19.2115
2 31.72 9.97843 18.6478
1 29.8485 8.69574 18.6242
2 29.6131 9.04983 17.6385
1 29.0919 7.7377 19.3117
1 29.3556 7.58746 20.6953
2 28.8038 6.89561 21.2554
1 27.9894 6.98522 18.6482
3 32.6815 47.5688 21.6955
3 34.7328 48.0822 21.2007
3 31.2353 48.6783 19.1998
3 33.1005 47.7808 18.3312
3 31.5503 0.740949 19.3307
3 33.6631 1.11985 18.6529
3 33.2417 1.36471 21.6824
3 34.728 1.53029 20.0557
3 29.3644 42.2239 27.8717
3 31.1613 41.2272 28.5021
3 29.8572 42.6556 24.5413
3 29.9715 40.639 25.3508
3 32.0151 44.2573 25.6926
3 32.9226 42.3544 25.0648
3 31.6301 44.3454 27.4361
3 32.3961 42.3695 28.0075
3 24.0622 43.75 19.7844
3 24.9302 41.8461 18.9407
3 23.9062 44.9399 18.7162
3 24.3834 43.9868 16.7843
3 27.0592 45.5679 17.9302
3 27.7663 43.7031 17.0373
3 27.014 43.5145 20.4352
3 26.6133 41.9026 19.0248
3 30.3633 49.1811 32.4087
3 32.2689 48.5386 33.2337
3 32.4351 48.391 30.2478
3 33.4795 48.2179 32.2175
3 32.2576 2.20352 30.1815
3 34.186 1.62665 31.1035
3 30.5603 1.3911 32.424
3 32.2382 1.83536 33.7677
3 32.2656 5.39332 26.1732
3 33.2036 7.2653 26.749
3 32.2659 5.31113 24.4549
3 33.0779 7.29913 23.8709
3 30.023 7.21037 23.5318
3 31.8834 8.49429 23.3028
3 29.8993 7.31027 27.1068
3 30.3284 9.28397 26.1656
3 22.8276 45.5322 32.6364
3 23.0613 44.8111 34.7021
3 24.2341 43.3124 31.1165
3 23.4168 42.3808 32.9175
3 25.9139 43.3747 31.2751
3 26.3181 42.8353 33.3962
3 26.4027 45.9862 32.8841
3 26.4484 44.4164 34.3859
3 30.5151 49.2229 22.464
3 28.4571 44.947 26.3578
3 25.9873 46.4947 20.6849
3 29.7395 49.8876 29.1719
3 29.149 4.76582 25.293
3 24.9654 46.5852 30.5231
4 31.9733 49.3311 21.1217
4 34.5204 48.966 19.4004
4 30.0709 43.5136 26.342
4 31.7876 41.0578 26.3492
4 25.8079 44.9479 19.4667
4 25.999 42.7545 17.2236
4 31.2877 0.517059 30.6747
4 33.5196 0.595671 32.8205
4 30.5412 6.1948 25.2963
4 32.2125 8.61787 25.3723
4 24.7704 45.1047 31.9463
4 24.4726 43.4126 34.3627
1 17.3395 3.0669 29.5849
1 17.0828 4.37332 28.891
1 16.1777 5.31923 29.4547
2 15.6394 5.05589 30.3989
1 15.8887 6.52112 28.8099
2 15.123 7.17136 29.1346
1 16.6903 6.84714 27.7184
2 16.6196 7.83826 27.2603
1 17.6776 5.97285 27.2326
1 17.7404 4.71393 27.7137
2 18.3992 3.97493 27.2769
1 18.6317 6.44095 26.1269
1 19.1054 2.47685 32.099
1 19.6257 3.55293 32.9934
1 18.7547 4.11414 34.0168
2 17.6374 3.93191 34.0142
1 19.3578 4.97024 34.9785
2 18.8235 5.30826 35.8444
1 20.67 5.34739 34.7774
2 21.0558 6.01259 35.4436
1 21.4718 4.89131 33.7134
1 20.9649 3.92243 32.8701
2 21.5615 3.46946 32.0724
1 22.8246 5.43212 33.4264
1 18.9856 48.8783 32.6658
1 19.6279 47.9816 33.6839
1 18.9988 47.9521 34.9608
2 18.0579 48.4397 35.0839
1 19.59 47.1494 35.9646
2 19.2221 47.0665 36.8935
1 20.7435 46.3626 35.6014
2 21.2045 45.7851 36.3924
1 21.2502 46.2801 34.2755
1 20.678 47.1239 33.3359
2 20.9057 47.0207 32.2715
1 22.3896 45.4261 33.8455
1 16.7011 48.4344 29.1783
1 16.2188 47.3128 28.37
1 14.8469 47.0747 28.3648
2 14.1983 47.8629 28.8782
1 14.3528 45.9695 27.7577
2 13.2966 45.8089 27.7921
1 15.2245 45.1568 27.0373
2 14.9323 44.2333 26.5065
1 16.6409 45.348 26.9893
1 17.1083 46.4599 27.721
2 18.2313 46.6579 27.8433
1 17.5803 44.3432 26.399
1 21.7248 8.3 22.356
1 22.5146 8.7575 21.1535
1 22.2436 10.0447 20.6363
2 21.4038 10.6168 21.0778
1 22.9305 10.4301 19.4393
2 22.6652 11.3417 19.027
1 23.7298 9.4987 18.7266
2 24.0167 9.8312 17.7099
1 24.0656 8.27104 19.3498
1 23.5343 7.92735 20.632
2 23.8219 7.09624 21.1908
1 24.8539 7.21388 18.6548
1 21.0252 8.25623 26.8795
1 21.253 8.57994 28.3385
1 20.4562 9.51217 29.0173
2 19.7129 10.092 28.4884
1 20.5845 9.66025 30.3628
2 19.9353 10.3458 30.9065
1 21.5907 8.9744 31.0835
2 21.8003 9.25962 32.1005