2544
 Atoms. Timestep: 0
1 42.8604 10.102 15.9824
1 41.4046 10.4978 16.1469
1 40.9789 11.3605 17.1265
2 41.7335 11.7074 17.8057
1 39.673 11.8354 17.1407
2 39.4514 12.5311 17.9822
1 38.6743 11.3593 16.2219
2 37.6877 11.8796 16.2454
1 39.024 10.3667 15.3165
1 40.3997 9.87162 15.2983
2 40.691 9.1391 14.554
1 38.0006 9.76799 14.3626
1 7.84377 7.26889 16.2377
1 7.23421 42.3122 16.5835
1 7.25084 41.9428 17.9385
2 7.61806 42.6057 18.7211
1 43.0867 40.7143 18.3759
2 43.1496 40.4076 19.4083
1 42.5645 39.8208 17.486
2 42.1704 38.9162 17.8196
1 42.6719 40.0973 16.1066
1 43.2063 41.3646 15.6649
2 43.1483 41.6552 14.6273
1 42.0837 39.1939 15.1148
1 11.5716 9.31249 15.5102
1 12.9798 9.28561 15.2898
1 13.8965 9.33361 16.3423
2 13.4186 9.44494 17.3479
1 15.2621 9.42112 16.0969
2 15.9688 9.44704 16.9407
1 15.7298 9.43739 14.8055
2 16.7478 9.66151 14.6474
1 14.8248 9.34209 13.7349
1 13.4323 9.23064 13.9823
2 12.7107 9.1612 13.1498
1 15.3003 9.60219 12.3652
1 8.69226 12.1322 14.8514
1 8.5981 13.5442 14.4158
1 8.05592 14.5031 15.2983
2 8.00774 14.273 16.4402
1 7.77842 15.7648 14.8201
2 7.46072 16.5567 15.5605
1 7.98735 16.0778 13.4644
2 7.87545 17.1207 13.116
1 8.4533 15.099 12.5639
1 8.87684 13.8618 13.0945
2 9.40093 13.1553 12.4354
1 8.57021 15.3645 11.1301
1 34.9142 7.54408 10.7426
1 33.9724 7.0064 9.71839
1 32.7657 7.65084 9.63063
2 32.5308 8.44277 10.3778
1 31.7799 7.17855 8.7028
2 30.7297 7.50178 8.75689
1 32.0581 42.6337 7.75963
2 31.3849 42.2671 43.6008
1 33.4177 42.1846 7.69706
1 34.3164 42.4673 8.73956
2 35.3594 42.1369 8.76284
1 33.8583 41.2869 43.1982
1 35.9734 42.3544 12.9951
1 35.9178 40.8618 13.2632
1 34.7576 40.1834 13.769
2 33.8728 40.759 13.9143
1 34.8206 38.8154 14.0855
2 33.9348 38.2657 14.5002
1 36.0624 38.1385 13.933
2 36.084 37.1103 14.289
1 37.1972 38.8392 13.4739
1 37.0967 40.1202 13.0355
2 37.9026 40.6211 12.5745
1 38.4948 38.2097 13.3558
1 35.839 10.4953 10.7835
1 35.2818 11.4482 9.78427
1 34.166 12.2088 10.0602
2 33.7126 12.0328 11.0318
1 33.6512 13.1676 9.16332
2 32.7135 13.6618 9.34247
1 34.2171 13.2448 7.93132
2 33.8614 13.9265 7.21634
1 35.4249 12.538 7.59822
1 35.8847 11.6182 8.50007
2 36.663 10.9492 8.10754
1 36.1752 12.6708 42.9895
1 41.2339 35.2314 11.9975
1 41.526 34.0228 11.1568
1 41.862 32.7582 11.7462
2 41.742 32.5476 12.9176
1 42.1899 31.6736 10.8938
2 42.3416 30.7176 11.3553
1 42.2426 31.8917 9.4903
2 42.6107 31.1258 8.79634
1 41.8628 33.1277 8.91845
1 41.526 34.1772 9.78739
2 41.4263 35.2302 9.44724
1 41.8446 33.4137 7.50937
1 7.07837 36.6435 13.7529
1 8.40723 36.1044 13.5627
1 8.84334 34.9524 14.3182
2 8.18698 34.624 15.1251
1 10.1428 34.4682 14.1822
2 10.4635 33.6819 14.8089
1 10.9129 35.0097 13.2089
2 11.9077 34.5886 12.9548
1 10.4783 36.1326 12.4415
1 9.18871 36.6643 12.5904
2 8.88915 37.5627 12.0795
1 11.3704 36.7301 11.4807
1 35.7219 11.3185 40.1031
1 34.7112 10.274 39.8929
1 33.4835 10.6233 39.2538
2 33.3121 11.6159 38.9085
1 32.4578 9.62699 39.1207
2 31.5123 9.93781 38.6622
1 32.7217 8.30345 39.5638
2 31.9845 7.52802 39.4361
1 33.9582 7.96091 40.1792
1 34.9392 8.99576 40.3615
2 35.8753 8.765 40.7955
1 34.2476 42.9368 40.3332
1 38.5398 14.8983 42.5341
1 39.1302 15.9302 43.3714
1 38.4777 17.1346 43.6588
2 37.4779 17.3514 43.3023
1 39.0368 18.1165 7.88066
2 38.4451 19.0049 8.11398
1 40.3885 17.9484 8.2111
2 40.941 18.7589 8.74402
1 41.0839 16.7828 7.9229
1 40.3661 15.7393 7.33937
2 40.8664 14.8027 7.23195
1 42.4781 16.5582 8.33111
1 11.1273 15.4372 8.91374
1 12.5785 15.139 9.08356
1 13.4721 16.177 9.236
2 13.1073 17.1933 9.24575
1 14.8487 15.9441 9.21772
2 15.4402 16.8256 9.33509
1 15.2842 14.6559 9.3806
2 16.3235 14.5039 9.67232
1 14.3565 13.5515 9.41704
1 12.9792 13.8277 9.18023
2 12.2507 13.002 9.08874
1 14.7273 12.1319 9.54801
3 43.1533 9.28986 15.0478
3 7.38786 10.7549 16.6044
3 7.58736 7.74944 15.0922
3 8.58136 7.9357 17.0518
3 10.7506 8.75072 14.7177
3 11.1435 10.0515 16.4714
3 8.71593 11.2113 13.9916
3 8.6104 11.7747 16.0808
3 36.1073 7.18036 10.769
3 34.498 8.36122 11.6241
3 36.7972 42.8237 12.1224
3 35.1742 43.1477 13.6169
3 38.4108 9.14933 13.3342
3 36.77 9.82467 14.54
3 37.0239 10.0279 10.6594
3 35.0703 10.0354 11.7308
3 41.2169 36.3933 11.5249
3 41.1899 35.1067 13.2709
3 43.2663 37.8398 13.3542
3 42.4582 35.9386 14.1622
3 42.5932 39.1513 13.9134
3 41.1589 38.3437 15.487
3 39.5005 38.951 13.1335
3 38.6596 36.9689 13.5796
3 36.65 11.1325 40.965
3 35.594 12.4433 39.5605
3 36.9237 11.7752 42.468
3 36.119 13.8111 42.4403
3 39.195 13.857 42.2252
3 37.3273 14.9635 42.1934
3 39.151 12.5852 39.2433
3 38.2115 14.5279 38.9841
3 42.8318 15.4604 8.81477
3 7.00848 17.4054 7.96824
3 9.08453 14.5089 10.3887
3 8.16582 16.4729 10.6406
3 10.2777 14.6121 9.27732
3 10.793 16.5901 8.4995
3 8.90797 15.4041 43.2712
3 8.189 17.4951 43.5367
3 36.2655 41.217 39.2876
3 34.4343 40.3748 38.5166
3 36.5851 38.9243 40.8568
3 34.4906 38.3337 41.1891
3 35.0814 40.953 43.1444
3 33.0868 41.2679 42.1444
3 35.4957 42.6038 40.3243
3 33.3375 42.0457 40.6468
3 8.83229 8.61542 12.1509
3 39.4044 7.78239 10.6691
3 41.4009 39.5246 10.751
3 39.985 10.6313 41.5368
3 7.92524 12.7719 7.84463
3 38.0253 41.3594 42.2719
4 8.74372 9.16385 14.1782
4 9.22523 9.89752 17.0491
4 37.7169 8.31847 11.575
4 35.2835 8.91665 13.5454
4 41.3648 38.2955 12.4279
4 40.4424 36.5169 14.667
4 38.5586 12.1743 41.1697
4 36.5256 14.2619 40.3302
4 8.31031 14.6182 8.45323
4 8.81506 17.4214 8.88516
4 36.2544 40.8944 41.3856
4 33.5355 39.9962 40.426
1 8.28309 40.1833 34.5158
1 9.70706 39.8572 34.3877
1 10.135 38.9716 33.4043
2 9.42413 38.5181 32.6933
1 11.4436 38.5482 33.3283
2 11.7194 37.9154 32.4786
1 12.3433 38.9526 34.3448
2 13.4078 38.7014 34.2242
1 11.974 40.0458 35.2234
1 10.6179 40.4349 35.2585
2 10.3067 41.1947 35.9553
1 12.9341 40.664 36.2319
1 43.1863 43.0158 33.9279
1 7.29065 7.99529 33.4308
1 7.08424 8.41746 32.0885
2 42.9909 7.78643 31.3758
1 7.66942 9.64777 31.6083
2 7.52791 9.91677 30.5764
1 8.31693 10.4624 32.532
2 8.92294 11.3432 32.2135
1 8.35799 10.1196 33.8752
1 7.83932 8.91404 34.3449
2 7.90061 8.73665 35.3566
1 8.81102 11.1092 34.8588
1 39.5513 40.8712 35.3013
1 38.1117 40.9563 35.5175
1 37.2531 40.8399 34.4337
2 37.6451 40.7527 33.402
1 35.8257 40.7012 34.6049
2 35.3325 40.638 33.7188
1 35.2586 40.8016 35.8555
2 34.2192 40.7273 35.9906
1 36.1307 41.0193 36.956
1 37.5517 41.0841 36.7658
2 38.2517 41.0265 37.6069
1 35.5521 40.8421 38.3338
1 42.5197 38.1659 35.6234
1 42.5552 36.7969 36.0468
1 42.9116 35.7752 35.0993
2 43.1089 35.9869 34.0427
1 43.1742 34.4729 35.6383
2 7.06828 33.7355 34.8946
1 42.9589 34.1836 37.0005
2 43.0306 33.1669 37.3421
1 42.407 35.1431 37.8302
1 42.3523 36.4759 37.3907
2 41.9031 37.2539 38.1382
1 42.1345 34.7731 39.2099
1 16.2564 42.7526 39.7849
1 17.1417 43.1121 40.946
1 18.4304 42.5859 41.0384
2 18.8487 41.9214 40.3205
1 19.2682 42.9596 42.1204
2 20.2681 42.5677 42.1735
1 18.8408 7.34072 43.1441
2 19.4563 7.5842 7.33097
1 17.5001 7.84876 43.1143
1 16.6845 7.52095 42.0025
2 15.7725 8.05083 41.7785
1 16.8376 8.5884 7.57294
1 14.9939 7.94801 37.2343
1 14.8563 9.32836 36.8796
1 15.912 9.99342 36.3088
2 16.8827 9.50918 36.1307
1 15.7563 11.331 36.0071
2 16.7023 11.7454 35.6073
1 14.5974 12.0409 36.2459
2 14.5658 13.0235 35.9166
1 13.4743 11.3202 36.7334
1 13.6328 10.0117 37.0782
2 12.7357 9.48436 37.5617
1 12.1183 11.9314 36.7422
1 14.9571 39.851 39.5954
1 15.3584 38.8484 40.6325
1 16.5245 38.0517 40.3835
2 17.0068 38.055 39.4241
1 16.9402 37.1108 41.3077
2 17.6929 36.4105 41.0179
1 16.1674 36.871 42.4318
2 16.5603 36.1414 43.1032
1 15.0943 37.7092 42.7078
1 14.6493 38.6414 41.7716
2 13.7798 39.1888 41.9495
1 14.2755 37.4997 7.28212
1 9.513 14.8923 38.1469
1 9.27923 16.0522 39.1086
1 9.06941 17.3662 38.6218
2 9.03765 17.5821 37.5558
1 8.67163 18.3378 39.503
2 8.5337 19.348 39.117
1 8.68057 18.118 40.8549
2 8.49123 18.9544 41.534
1 8.8489 16.8229 41.3436
1 9.11834 15.7438 40.4701
2 9.19971 14.6971 40.8917
1 8.61716 16.5879 42.7777
1 7.23534 13.314 36.5121
1 42.2033 13.8096 36.4798
1 41.8104 14.7684 35.5366
2 42.5231 15.1217 34.813
1 40.4683 15.2184 35.4999
2 40.12 15.9608 34.7065
1 39.619 14.9302 36.5391
2 38.6394 15.2812 36.4602
1 40.0317 14.0373 37.5367
1 41.2976 13.4284 37.4642
2 41.543 12.7047 38.2336
1 39.0898 13.6855 38.6436
1 14.9889 38.6998 10.4209
1 15.901 39.751 10.8001
1 17.2763 39.5131 11.0767
2 17.7054 38.4721 11.1513
1 18.133 40.5667 11.4569
2 19.1305 40.3351 11.8173
1 17.6606 41.8962 11.3892
2 18.4314 42.6671 11.4981
1 16.287 42.2252 11.0124
1 15.4277 41.1078 10.7518
2 14.4384 41.3388 10.4448
1 16.0155 7.22154 10.5497
1 12.1129 35.5079 7.83985
1 11.4894 34.5543 43.505
1 12.0914 33.368 43.1774
2 13.1316 33.0874 43.4739
1 11.3631 32.3399 42.5536
2 11.9312 31.4133 42.4232
1 10.0188 32.5773 42.2231
2 9.45681 31.7763 41.7058
1 9.44948 33.7922 42.4391
1 10.1353 34.8201 43.074
2 9.62652 35.7373 43.3156
1 7.98782 33.9875 42.2105
1 39.3805 34.7673 41.1101
1 37.9301 35.0225 41.1775
1 37.0408 34.0136 41.5189
2 37.3412 32.9573 41.5736
1 35.6486 34.3407 41.6878
2 34.9611 33.6091 42.0995
1 35.215 35.6614 41.5705
2 34.1735 35.9122 41.7694
1 36.1041 36.6215 41.1985
1 37.4347 36.2958 40.9647
2 38.1546 37.0756 40.5997
1 35.7073 38.0113 41.1229
3 7.91769 41.0311 35.408
3 7.37533 39.586 33.7706
3 7.11209 42.5644 35.094
3 42.4077 42.3523 33.2181
3 40.3343 41.5872 35.9699
3 39.9704 39.981 34.5307
3 42.4137 39.0935 36.462
3 42.5236 38.4487 34.3712
3 15.0497 43.1992 39.6703
3 16.6164 41.8407 38.9551
3 14.3569 7.56261 38.2603
3 15.4794 7.1205 36.4149
3 12.5769 41.6523 36.9672
3 14.0981 40.1458 36.3195
3 13.7956 40.3391 39.7073
3 15.8236 40.2252 38.7312
3 9.58163 13.7263 38.5908
3 9.35403 15.0235 36.8598
3 7.53756 12.1683 36.9666
3 8.1819 14.1426 36.0825
3 8.42022 10.9968 36.0842
3 9.55464 12.0548 34.4775
3 11.1153 11.1807 36.914
3 12.0112 13.146 36.5438
3 13.7961 39.0033 10.2738
3 15.4011 37.5727 10.0894
3 13.0922 37.9165 7.42566
3 14.9027 37.0414 8.2816
3 11.7378 36.7503 7.88284
3 13.001 35.0759 8.61348
3 10.9005 37.2367 10.4173
3 12.637 36.6217 11.6136
3 7.50287 35.1497 41.9339
3 7.2108 32.9628 42.2894
3 41.5956 35.5699 40.0351
3 42.4224 33.565 39.645
3 40.2398 35.6546 40.8006
3 39.8025 33.6697 41.6401
3 41.3011 34.4797 7.06941
3 42.425 32.6157 43.3172
3 14.5224 9.40602 11.3753
3 16.4999 9.96162 12.1556
3 13.8219 11.2236 9.69065
3 15.9644 11.8351 9.52212
3 15.7128 9.13478 7.49038
3 17.4457 8.66416 8.66982
3 14.7919 7.72818 10.5756
3 17.0019 7.93214 10.1713
3 42.3555 41.808 38.2802
3 11.4684 42.519 39.7062
3 9.42297 10.8985 39.4709
3 11.0409 40.2167 8.71428
3 42.0125 37.1957 43.1346
3 12.5995 8.92154 8.23837
4 42.319 41.1372 36.3001
4 41.7824 40.2866 33.4421
4 13.3258 42.0248 38.7713
4 15.7274 41.3968 36.942
4 9.40299 11.8686 37.717
4 10.3139 13.6832 35.5853
4 12.1448 38.3539 9.19628
4 13.9325 36.1595 10.0983
4 41.8383 35.4365 42.055
4 41.6892 32.6553 41.3606
4 14.3909 9.35813 9.22917
4 17.1967 10.187 10.197
2 10.7477 41.8776 39.755
2 11.2893 7.04622 40.014
2 39.589 8.32188 9.83913
2 40.1657 7.39296 11.1528
2 38.0732 41.0055 43.1669
2 38.6924 42.0315 42.0204
2 39.8727 9.68311 41.3391
2 40.6869 10.8905 42.1216
2 11.7769 9.09845 8.67514
2 12.64 8.96664 7.27746
2 9.04483 9.32853 11.5151
2 8.31431 7.86116 11.8487
2 7.87455 12.4794 43.5897
2 7.66477 12.0803 8.45844
2 11.3517 40.8211 8.07278
2 10.2388 40.3864 9.25324
2 41.6302 39.2471 9.88379
2 40.8075 40.2918 10.7459
2 41.2616 37.518 43.6088
2 42.8766 37.3287 43.5949
2 9.06493 10.0081 39.2614
2 9.68106 11.3837 40.2967
2 41.7547 41.5905 38.9753
2 42.9976 42.5124 38.5532
1 11.7494 16.8937 24.848
1 10.7389 15.9278 25.2261
1 10.6639 14.6867 24.5631
2 11.4499 14.3571 23.8709
1 9.62731 13.8383 24.9236
2 9.50407 12.9397 24.4088
1 8.66187 14.2255 25.8473
2 7.8706 13.5462 26.1567
1 8.80159 15.3777 26.6051
1 9.82183 16.2703 26.2671
2 9.9247 17.0995 26.9166
1 7.72255 15.8571 27.4848
1 11.8609 17.8834 21.7704
1 10.9529 17.335 20.7132
1 11.3736 16.2288 20.0025
2 12.3188 15.7822 20.2388
1 10.4456 15.5375 19.0866
2 10.652 14.606 18.6354
1 9.18097 16.1038 18.9391
2 8.39932 15.5869 18.339
1 8.85923 17.3299 19.5157
1 9.73957 17.9303 20.4571
2 9.3873 18.8256 21.0318
1 7.52106 17.85 19.4209
1 14.9684 20.3542 22.8571
1 15.8691 21.3699 22.2538
1 16.9481 20.9574 21.4495
2 17.147 19.8919 21.1911
1 17.789 21.9033 20.8375
2 18.4822 21.5672 20.073
1 17.5419 23.2813 21.0571
2 18.1311 23.9201 20.4312
1 16.4782 23.707 21.927
1 15.7225 22.7598 22.5275
2 14.8262 23.0322 23.0897
1 16.1892 25.1332 22.2257
1 13.9887 18.7385 26.4015
1 14.3736 18.8343 27.852
1 15.1405 17.7866 28.463
2 15.4112 16.8742 27.9319
1 15.4821 17.9582 29.819
2 15.9705 17.1475 30.3808
1 15.2606 19.2012 30.5313
2 15.6344 19.3552 31.5168
1 14.3836 20.1085 29.9778
1 14.0201 19.9223 28.6324
2 13.5611 20.7843 28.1448
1 14.2046 21.4269 30.5945
1 39.3499 17.2489 28.3386
1 37.9323 17.701 28.4886
1 36.9098 16.7052 28.754
2 37.1997 15.7388 28.9082
1 35.5798 17.0626 28.5753
2 34.8303 16.2449 28.629
1 35.2119 18.3659 28.2303
2 34.1309 18.5116 28.1693
1 36.1352 19.3928 28.2641
1 37.4875 19.0424 28.2662
2 38.2151 19.7446 28.0185
1 35.7376 20.7886 28.3417
1 41.3064 15.8693 26.1754
1 41.3846 15.4631 24.757
1 41.5505 14.0713 24.4461
2 41.7003 13.2732 25.2077
1 41.5909 13.7148 23.064
2 41.7211 12.682 22.8983
1 41.4405 14.6548 22.078
2 41.5767 14.3113 21.046
1 41.2919 15.9994 22.3514
1 41.3417 16.3986 23.6822
2 41.2074 17.4513 24.0494
1 41.3376 17.0198 21.2487
1 42.1176 17.7039 31.035
1 42.4257 18.229 32.3586
1 43.1617 17.5488 33.3398
2 7.12621 16.5478 33.1671
1 7.03916 18.1437 34.6014
2 7.57815 17.5468 35.2765
1 43.0447 19.4239 34.8741
2 43.2198 19.8501 35.8289
1 42.2911 20.1299 33.9835
1 41.9809 19.55 32.7022
2 41.3207 20.029 31.9967
1 41.7278 21.5191 34.3204
1 39.1791 19.8153 18.862
1 37.8398 20.4498 18.6794
1 36.6569 19.7682 18.4055
2 36.7414 18.6843 18.1808
1 35.3964 20.4214 18.2377
2 34.4803 19.8662 17.9525
1 35.4034 21.8316 18.3566
2 34.5154 22.3909 18.1634
1 36.5855 22.5448 18.6725
1 37.7752 21.8832 18.8529
2 38.7616 22.3596 19.1032
1 36.511 23.9315 18.9578
1 42.6991 20.1145 17.3764
1 43.1231 21.0285 16.3319
1 42.6044 20.7901 15.0186
2 42.0968 19.901 14.7261
1 42.721 21.7869 14.0428
2 42.3284 21.564 13.0559
1 7.09484 22.9381 14.24
2 7.2364 23.6303 13.4977
1 7.58541 23.2276 15.5935
1 7.43605 22.2566 16.5942
2 7.78721 22.5159 17.5647
1 8.28858 24.5633 15.9117
1 38.7174 24.2041 34.4137
1 37.2724 24.021 34.1887
1 36.4491 23.6379 35.2338
2 36.8377 23.5795 36.2855
1 35.1008 23.2767 34.993
2 34.4422 22.9556 35.8195
1 34.5867 23.4517 33.6796
2 33.5536 23.0539 33.5646
1 35.426 23.8205 32.5852
1 36.7712 24.0755 32.8732
2 37.4495 24.3491 32.0236
1 35.0309 23.5754 31.1612
1 7.43173 23.8598 35.0227
1 8.89585 23.6516 35.2346
1 9.35005 23.0432 36.4279
2 8.59124 22.889 37.1843
1 10.6604 22.6164 36.5736
2 10.9713 22.2045 37.4868
1 11.5674 22.7647 35.5643
2 12.5696 22.4965 35.8018
1 11.167 23.4471 34.4167
1 9.83635 23.8631 34.276
2 9.61977 24.2298 33.2939
1 12.1403 23.6094 33.3301
1 15.6964 24.3633 29.578
1 16.6647 24.544 28.454
1 18.0236 24.077 28.5992
2 18.3149 23.4342 29.4626
1 18.8989 24.2984 27.5646
2 19.9096 23.9077 27.5846
1 18.4714 24.896 26.4051
2 19.1642 24.8346 25.5596
1 17.1587 25.3759 26.2189
1 16.2574 25.1885 27.2671
2 15.2792 25.627 27.2075
1 16.7898 26.1572 25.0418
3 11.646 18.1285 25.1971
3 12.5787 16.6219 23.8774
3 11.6194 19.0086 22.3172
3 12.6715 17.0788 22.3452
3 14.1764 20.6265 23.7876
3 14.9876 19.1811 22.4325
3 12.7942 19.0687 26.0742
3 14.7358 18.1824 25.553
3 40.1513 17.9347 27.7513
3 39.7607 16.2013 29.0028
3 41.2339 17.1154 26.462
3 41.6472 15.0402 27.0826
3 7.57531 17.1011 27.6386
3 43.234 15.0676 27.8336
3 41.7224 18.5303 30.1576
3 42.5448 16.5641 30.7028
3 40.1415 20.4674 19.3185
3 39.2964 18.5856 18.6289
3 43.106 20.2596 18.5595
3 41.9831 19.15 17.073
3 7.28335 19.1232 19.5879
3 42.9499 17.0626 19.2353
3 41.2497 18.2572 21.5031
3 41.6634 16.6625 20.0526
3 39.3661 24.8902 33.5975
3 39.2871 23.432 35.1653
3 41.4108 22.249 33.2981
3 41.9403 22.0363 35.4673
3 6.99005 24.5442 34.0355
3 43.0297 23.3379 35.8215
3 42.4607 25.8945 34.0297
3 41.5346 25.932 36.0941
3 11.8827 24.4232 32.3832
3 13.1997 22.921 33.2333
3 13.0652 22.0511 30.4605
3 15.2214 22.0678 31.0135
3 14.5803 24.8858 29.5521
3 15.914 23.4577 30.4393
3 12.7715 25.63 31.8692
3 14.9134 25.6788 32.1408
3 35.5324 25.354 29.2538
3 33.3489 24.961 28.9874
3 34.8348 24.0708 26.5719
3 32.761 24.0336 27.2668
3 36.6609 21.6667 28.3349
3 34.4615 21.0553 28.4931
3 35.9173 23.8491 30.269
3 33.8351 23.1879 30.8374
3 11.0667 21.4743 24.2145
3 43.0175 19.8945 27.3739
3 42.348 21.4776 21.4601
3 41.1546 24.638 31.1956
3 11.5158 24.4848 28.9399
3 38.044 23.9313 27.3492
4 12.3043 19.8083 24.1307
4 14.3731 17.5951 23.5617
4 42.1929 18.0949 28.2045
4 41.6526 15.3179 29.2275
4 41.8539 19.8883 20.1981
4 41.1804 17.655 18.2636
4 41.3367 24.3511 33.2351
4 41.0942 23.8192 36.1092
4 12.8522 24.0882 30.4812
4 14.994 23.6065 32.415
4 36.0898 23.6438 28.1623
4 33.2271 22.7466 28.9376
1 38.7401 33.7703 26.0126
1 39.7985 34.7262 25.56
1 39.6443 36.1399 25.8077
2 38.754 36.5991 26.2918
1 40.7228 36.9952 25.5067
2 40.7184 38.0199 25.8264
1 41.9076 36.533 24.9432
2 42.7137 37.197 24.8376
1 42.0253 35.1521 24.6131
1 40.9648 34.2487 24.9611
2 41.1505 33.1778 24.8067
1 43.2435 34.6963 23.8486
1 38.7713 32.6457 28.9275
1 39.6619 33.0715 30.0277
1 39.1225 33.7796 31.0805
2 38.0867 34.168 30.9821
1 39.9157 34.1995 32.1129
2 39.526 34.7772 32.9245
1 41.2532 33.8628 32.1646
2 41.8611 34.3566 32.9186
1 41.7529 32.925 31.2636
1 40.9188 32.4695 30.2433
2 41.2792 31.8275 29.4946
1 43.1629 32.5285 31.3162
1 35.3995 30.6427 28.4667
1 34.6118 29.631 29.2252
1 33.3024 29.9595 29.6541
2 33.0532 30.946 29.7841
1 32.3718 28.9771 30.0338
2 31.4528 29.1474 30.4619
1 32.7241 27.6352 29.8756
2 32.0438 26.8841 30.2783
1 34.0114 27.2518 29.4145
1 34.9321 28.2466 29.143
2 35.9103 27.9296 28.7223
1 34.3367 25.7711 29.2315
1 36.4627 31.8357 24.5038
1 35.8423 31.4901 23.2003
1 34.8097 32.2023 22.6645
2 34.4185 33.0244 23.2278
1 34.2466 31.8761 21.441
2 33.4662 32.4718 21.0293
1 34.6725 30.7736 20.7167
2 34.054 30.4663 19.9046
1 35.6951 30.0494 21.2229
1 36.3381 30.3725 22.4347
2 37.132 29.8542 22.8508
1 35.899 28.7435 20.6299
1 11.6485 33.2 22.9968
1 13.0893 32.9538 23.1244
1 14.0256 33.9107 22.7166
2 13.6567 34.7237 22.1509
1 15.3557 33.6086 22.5984
2 15.9766 34.2792 22.0188
1 15.8228 32.2867 22.849
2 16.8274 32.0356 22.5904
1 14.9582 31.4066 23.4596
1 13.5904 31.7262 23.6238
2 12.8991 30.9324 24.0389
1 15.3623 29.998 23.5336
1 9.5252 34.6809 25.1139
1 9.75855 35.2404 26.5009
1 9.98137 36.5994 26.7221
2 10.1488 37.2584 25.9024
1 9.94712 37.0665 28.0324
2 10.0603 38.106 28.2069
1 9.78925 36.1647 29.1404
2 9.67125 36.5367 30.1157
1 9.83292 34.7926 28.9
1 9.85647 34.3359 27.5748
2 9.70514 33.2643 27.4253
1 9.66423 33.8439 30.0151
1 8.22795 33.0732 20.4693
1 7.75321 32.5716 19.1529
1 7.05949 33.3737 18.2146
2 43.2586 34.4059 18.4917
1 43.1087 32.8669 16.9753
2 42.7773 33.5735 16.2701
1 7.03484 31.5652 16.5878
2 43.1369 31.2157 15.5786
1 7.69833 30.7621 17.4991
1 8.04431 31.2556 18.7211
2 8.6681 30.666 19.3725
1 7.99673 29.385 17.1706
1 11.2358 30.5379 32.3354
1 12.4621 29.8045 32.5083
1 13.6568 30.4853 32.9225
2 13.6372 31.497 33.2865
1 14.8688 29.7901 33.1359
2 15.7922 30.2764 33.4254
1 14.8786 28.4321 32.7382
2 15.8232 27.9665 32.6706
1 13.7473 27.7117 32.408
1 12.5241 28.4413 32.2396
2 11.6356 27.949 31.9592
1 13.7945 26.2792 32.1459
1 8.22112 30.6402 33.6245
1 7.58611 29.8506 34.7058
1 7.37186 30.4948 35.9379
2 7.62422 31.5673 36.0143
1 43.021 29.7904 36.8854
2 42.7328 30.1564 37.8762
1 42.6001 28.5292 36.6859
2 42.0695 28.0674 37.496
1 42.7548 27.8631 35.4535
1 7.04272 28.5748 34.4482
2 7.162 28.1151 33.4532
1 42.2294 26.5002 35.1818
1 11.4699 27.1797 16.8646
1 12.8788 27.0953 17.2903
1 13.7978 26.4428 16.4065
2 13.6024 26.2147 15.3557
1 15.0903 26.1844 16.8384
2 15.8474 25.7788 16.2246
1 15.488 26.498 18.083
2 16.5562 26.2714 18.4094
1 14.5734 27.1486 18.9561
1 13.3056 27.5135 18.5105
2 12.6628 28.0117 19.1776
1 15.047 27.4607 20.3351
1 42.6298 26.9663 16.2526
1 41.1849 27.0261 15.9812
1 40.6637 27.2581 14.6775
2 41.3828 27.3743 13.8972
1 39.2779 27.3627 14.4785
2 38.896 27.4769 13.4798
1 38.3845 27.1838 15.4906
2 37.401 27.3922 15.2298
1 38.8698 26.9282 16.7822
1 40.239 26.8856 17.013
2 40.6171 26.7389 18.0436
1 37.9174 26.7017 17.8846
1 34.4586 25.8387 21.5815
1 33.5295 25.7571 22.7759
1 32.173 26.1678 22.7069
2 31.7257 26.5925 21.853
1 31.355 26.0378 23.8416
2 30.3003 26.2927 23.7321
1 31.7757 25.3414 24.9665
2 31.0959 25.2844 25.7922
1 33.1267 24.9446 25.0615
1 33.9729 25.0873 23.9294
2 34.964 24.6609 24.0114
1 33.6062 24.3224 26.3489
3 38.7764 32.5821 25.5783
3 37.9264 34.08 26.9586
3 38.911 31.5241 28.449
3 37.8406 33.4062 28.4875
3 36.1083 30.1577 27.4811
3 35.4074 31.8568 28.7586
3 37.7051 31.5777 24.7424
3 35.6704 32.2296 25.4252
3 10.8568 32.6971 23.8896
3 11.2079 34.0675 22.1498
3 9.80146 33.4758 24.8
3 9.17019 35.4826 24.19
3 7.07955 33.4141 23.8312
3 7.7861 35.5153 23.4535
3 8.92523 32.3357 21.2056
3 7.87857 34.2399 20.8165
3 10.177 29.8981 32.0174
3 11.2543 31.8147 32.4167
3 8.69225 30.0595 32.6398
3 8.24263 31.8826 33.6407
3 7.1347 31.614 30.5615
3 7.62771 33.1525 32.0415
3 10.0179 32.6305 29.8863
3 9.1216 34.2656 31.0929
3 10.5654 27.5414 17.6636
3 11.0629 26.6881 15.7889
3 7.63476 28.4195 17.8621
3 8.72186 29.195 16.1428
3 43.0907 27.1557 17.4013
3 7.02474 26.9168 15.2239
3 8.45326 24.8662 17.1282
3 8.30774 25.4388 15.0036
3 38.1589 25.9302 18.8497
3 36.7846 27.271 17.816
3 37.0356 28.1584 20.761
3 34.9567 28.0544 20.1429
3 35.5709 25.1757 21.5725
3 34.1707 26.6566 20.589
3 37.5529 24.5485 19.3182
3 35.4075 24.5163 18.7875
3 15.3618 25.4416 23.1493
3 16.7958 26.0423 21.592
3 15.546 26.1187 24.6968
3 17.5912 26.7833 24.337
3 14.6726 29.1608 24.1604
3 16.2644 29.6545 22.7435
3 14.1846 27.5945 21.2541
3 16.2544 27.2574 20.669
3 38.9863 29.0887 26.2074
3 8.04887 30.5337 23.6488
3 9.29269 29.7423 29.0717
3 9.01986 26.1626 19.7981
3 38.6438 25.9608 22.2734
3 12.2695 27.2575 23.6747
4 37.9877 30.8488 26.7199
4 36.1135 33.1208 27.3083
4 8.82472 32.4185 23.232
4 9.34323 35.1116 22.0622
4 9.02034 31.0148 30.6494
4 9.65884 33.1492 32.6918
4 8.68241 26.7203 17.8318
4 9.19643 27.357 15.1471
4 37.2712 26.0978 20.7043
4 35.0914 26.5406 18.6941
4 14.345 27.3538 23.3288
4 17.0415 27.9344 22.5131
2 7.10319 30.4474 23.365
2 8.50201 29.7234 23.8187
2 43.0054 20.1609 26.4377
2 7.09189 20.4429 28.0047
2 38.6011 23.1641 27.0966
2 38.2529 24.8033 27.1865
2 41.5678 25.3632 30.6404
2 40.591 24.1038 30.6743
2 11.6164 27.132 22.9711
2 11.9954 26.8776 24.5314
2 10.0874 21.3546 24.3247
2 11.3434 22.3855 24.0257
2 12.019 24.5208 28.0714
2 10.6221 24.7666 29.0301
2 8.7237 26.5551 20.6135
2 9.61143 25.3952 19.8744
2 43.2242 21.4375 21.7955
2 41.6127 21.6948 22.0585
2 39.4603 25.4467 22.2429
2 38.6545 26.7146 22.9426
2 8.99028 28.8441 29.094
2 9.90519 30.0211 28.3415
2 39.7128 29.1941 25.5831
2 38.7858 28.156 26.5543
1 33.9907 39.5983 23.2783
1 33.7737 38.0994 23.4888
1 34.8863 37.2636 23.7571
2 35.939 37.6139 23.7441
1 34.6295 35.9336 24.0813
2 35.4612 35.3556 24.4365
1 33.3032 35.4218 24.1668
2 33.169 34.5084 24.6812
1 32.2012 36.2182 23.807
1 32.473 37.6 23.5455
2 31.6157 38.2409 23.4109
1 30.7321 35.7717 23.9705
1 33.6927 41.9107 20.7232
1 33.1948 41.7175 19.3621
1 34.0892 41.9737 18.3217
2 35.0853 42.3 18.4957
1 33.6771 41.9061 16.9922
2 34.194 42.3333 16.1609
1 32.3583 41.4167 16.6739
2 31.9642 41.385 15.6031
1 31.4804 41.1543 17.7169
1 31.9272 41.2909 19.0248
2 31.2696 40.9981 19.7978
1 29.9971 41.0174 17.462
1 34.2808 8.1987 22.237
1 34.2224 9.64133 21.8463
1 35.0858 10.162 20.8165
2 35.717 9.51805 20.1909
1 34.9161 11.5056 20.4053
2 35.5682 11.8996 19.6686
1 34.0088 12.3264 21.0604
2 34.0173 13.3596 20.7952
1 33.2398 11.8374 22.1199
1 33.2264 10.4344 22.3886
2 32.5853 10.1216 23.1533
1 32.3746 12.734 22.9988
1 35.3295 42.6422 25.6042
1 35.7347 43.1765 26.9154
1 37.1554 7.16498 27.1668
2 37.8659 6.99715 26.3139
1 37.4522 7.7793 28.3638
2 38.5285 8.04844 28.5246
1 36.4546 7.96142 29.3554
2 36.6115 8.4559 30.2947
1 35.1525 7.53204 29.1405
1 34.7677 43.3234 27.9726
2 33.7813 43.0081 27.6333
1 34.125 7.71658 30.1858
1 25.8845 33.9674 24.6817
1 24.5779 33.4084 25.1245
1 24.6149 32.2244 25.8293
2 25.5381 31.6632 25.9095
1 23.4853 31.7463 26.4964
2 23.6185 30.798 27.0569
1 22.3275 32.5423 26.5034
2 21.4929 32.1944 27.0817
1 22.2602 33.779 25.8523
1 23.4306 34.2203 25.1676
2 23.462 35.2136 24.7317
1 21.0343 34.6508 26.1078
1 28.4893 35.5025 21.5791
1 28.4528 35.8272 20.1246
1 28.537 34.7764 19.2093
2 28.7627 33.7688 19.5202
1 28.5 35.0186 17.8616
2 28.5838 34.2545 17.0789
1 28.295 36.3395 17.4475
2 28.1428 36.5625 16.4181
1 28.1278 37.3842 18.3368
1 28.2251 37.2003 19.725
2 28.1078 38.0468 20.4725
1 27.8632 38.7095 17.8048
1 29.2442 34.6809 26.5801
1 29.5576 34.5001 27.958
1 30.4519 33.4448 28.4254
2 30.8912 32.7652 27.7311
1 30.4407 33.0967 29.8096
2 31.0986 32.2581 30.1387
1 29.7522 33.8722 30.7211
2 29.761 33.6703 31.738
1 28.981 35.0017 30.2718
1 28.9714 35.3386 28.9266
2 28.3642 36.181 28.5758
1 27.8785 35.6072 31.1558
1 25.0503 39.9649 16.9253
1 23.7658 39.2274 16.9901
1 23.5683 38.032 16.3683
2 24.3879 37.7081 15.7972
1 22.2683 37.5068 16.1526
2 22.1205 36.6359 15.59
1 21.1495 38.2568 16.6146
2 20.1222 37.8428 16.4431
1 21.2819 39.4023 17.3917
1 22.6183 39.8837 17.585
2 22.7588 40.8849 18.0427
1 20.0991 40.1141 17.9727
1 26.9262 6.99041 15.768
1 26.4362 8.24601 15.1801
1 26.2179 8.35876 13.7915
2 26.5709 7.51081 13.1596
1 25.7759 9.59294 13.2368
2 25.569 9.62892 12.2083
1 25.4064 10.6092 14.1126
2 24.8866 11.4846 13.6823
1 25.4786 10.4878 15.464
1 25.9909 9.279 16.0331
2 25.9621 9.1816 17.0359
1 24.9076 11.5143 16.3446
1 23.845 35.583 32.1881
1 22.7157 34.8435 31.6225
1 22.5629 33.49 31.978
2 23.1606 33.1228 32.6953
1 21.5037 32.7473 31.4597
2 21.3808 31.698 31.747
1 20.5645 33.3368 30.6214
2 19.6958 32.8357 30.0974
1 20.7085 34.7138 30.2773
1 21.7305 35.5209 30.8545
2 21.8207 36.6055 30.5203
1 19.9947 35.2747 29.1022
1 28.3617 38.1318 33.1153
1 29.6898 38.8839 33.3802
1 30.7685 38.1899 34.022
2 30.7254 37.1287 34.2744
1 31.9277 38.8772 34.3585
2 32.7657 38.3497 34.7653
1 32.122 40.1617 33.8969
2 33.106 40.6454 34.0636
1 31.116 40.8982 33.2623
1 29.8215 40.2734 33.0693
2 29.0718 40.792 32.5219
1 31.3539 42.2679 32.8276
1 32.4277 10.4393 30.5114
1 32.5651 11.8525 30.0161
1 33.3853 12.7976 30.6283
2 34.1457 12.4541 31.3288
1 33.425 14.1016 30.167
2 34.2083 14.7837 30.4618
1 32.7321 14.4717 29.0153
2 32.6754 15.5159 28.664
1 31.8738 13.5811 28.3893
1 31.7433 12.2483 28.9773
2 30.9841 11.6109 28.5926
1 31.3082 13.9282 27.0034
3 32.9858 40.3195 22.9791
3 35.1565 40.075 23.2383
3 32.9433 41.512 21.6383
3 34.877 42.3251 20.9835
3 33.3734 7.71933 22.9802
3 35.1755 7.44061 21.7598
3 34.2373 42.0182 25.4324
3 36.0324 42.939 24.5905
3 26.0228 35.1573 24.1685
3 26.9076 33.2993 24.8486
3 28.4967 36.468 22.4351
3 28.2026 34.3153 21.9753
3 29.8166 36.5553 23.6116
3 30.4806 34.5468 24.2607
3 28.4884 35.5732 26.1971
3 29.6651 33.8406 25.7446
3 25.3091 40.8586 17.7768
3 25.9729 39.5189 16.1898
3 27.5147 7.01744 16.8914
3 26.5454 42.2811 15.2449
3 29.1582 40.9138 18.4177
3 29.5619 41.0862 16.2536
3 28.0315 39.7623 18.5715
3 27.366 38.8483 16.6232
3 23.8874 36.8854 31.9354
3 24.8453 35.0068 32.6907
3 27.0427 36.3795 30.6537
3 27.9532 35.4783 32.4443
3 27.3894 38.7682 32.5274
3 28.215 36.9128 33.5097
3 25.8225 39.0215 33.0508
3 25.5547 37.7044 34.7461
3 30.4508 42.8408 32.1923
3 32.4804 42.8241 33.0478
3 33.0213 7.08274 30.0299
3 34.2829 8.62801 31.0664
3 31.3356 9.82228 30.365
3 33.3097 9.94188 31.2887
3 30.0755 9.43216 31.4312
3 31.3241 9.54011 33.2846
3 18.0134 38.195 26.6159
3 17.1615 36.5878 27.8119
3 19.8595 36.6196 24.8514
3 18.0349 35.3979 24.8211
3 21.0335 35.9433 25.8153
3 20.0334 34.147 26.7221
3 20.2051 36.4611 28.7584
3 19.3704 34.4203 28.3284
3 30.9853 42.6547 24.4207
3 27.0216 38.2983 24.7458
3 26.7305 43.0339 19.8123
3 24.7016 38.619 29.9663
3 30.05 7.03819 29.1522
3 20.908 39.02 27.0925
4 32.9443 42.2009 23.6943
4 35.8605 42.0556 22.8189
4 27.7471 36.3857 24.3996
4 28.6723 33.5379 23.9026
4 27.1959 41.7485 18.2356
4 27.6494 40.6509 15.5545
4 25.7306 37.6709 31.517
4 26.4221 35.8942 33.8255
4 31.1443 7.77998 30.6745
4 33.0341 8.44467 32.7887
4 19.8294 37.2495 26.8748
4 18.0167 34.9057 26.8841
1 16.0134 11.1293 26.3903
1 16.1936 12.5987 26.0856
1 15.0691 13.4111 26.0916
2 14.0467 13.0466 26.1853
1 15.2837 14.7586 26.0661
2 14.3904 15.3052 26.0071
1 16.5778 15.3337 25.9885
2 16.7107 16.3881 26.0231
1 17.7119 14.5208 25.8759
1 17.4982 13.1227 25.9939
2 18.2959 12.3606 25.9272
1 19.0829 15.0335 25.9873
1 16.8715 8.52821 29.6148
1 17.3552 8.55279 30.9863
1 16.6161 8.06388 32.0122
2 15.6269 7.6688 31.7598
1 17.1541 8.00073 33.2805
2 16.5196 7.73469 34.1332
1 18.3976 8.47741 33.5639
2 18.7604 8.41433 34.5833
1 19.2058 8.87055 32.4705
1 18.6594 9.02054 31.1985
2 19.2818 9.5222 30.4591
1 20.5981 9.25425 32.7991
1 15.6118 42.4533 27.8905
1 15.4067 41.0211 28.1857
1 14.205 40.5816 28.7488
2 13.5462 41.3591 29.1574
1 13.9616 39.2232 28.9608
2 12.9926 38.8792 29.3081
1 14.9653 38.3207 28.5153
2 14.8644 37.2681 28.738
1 16.166 38.7502 27.9069
1 16.3877 40.1383 27.7568
2 17.1935 40.5118 27.1445
1 17.0634 37.7497 27.3753
1 15.0624 7.41732 25.1393
1 14.5537 43.2491 23.8626
1 13.2222 42.9875 23.5831
2 12.3744 43.2836 24.2317
1 12.8639 42.2617 22.4107
2 11.8113 42.1073 22.2567
1 13.7818 41.9938 21.4334
2 13.4135 41.4596 20.5622
1 15.1096 42.4312 21.6074
1 15.5212 42.9411 22.8574
2 16.555 43.3065 23.0101
1 16.0891 42.0983 20.601
1 23.8553 16.6418 25.6216
1 25.1226 17.1343 25.091
1 25.3159 18.5243 24.8963
2 24.4762 19.1966 25.1717
1 26.5172 19.0338 24.4293
2 26.6138 20.1175 24.1946
1 27.6262 18.189 24.2418
2 28.5586 18.675 23.9509
1 27.4462 16.8175 24.4615
1 26.2223 16.3182 24.888
2 26.1136 15.2235 25.075
1 28.5922 15.9179 24.4499
1 22.151 15.0487 28.9493
1 22.4964 14.7785 30.3472
1 22.8767 15.8516 31.1704
2 22.8093 16.911 30.8012
1 23.2804 15.5633 32.4525
2 23.6417 16.3521 33.0601
1 23.3043 14.2907 32.9393
2 23.5924 14.165 34.0181
1 22.7444 13.2735 32.1925