2544
 Atoms. Timestep: 0
1 45.4652 7.7973 9.91037
1 44.335 8.54909 9.38842
1 43.9232 9.72451 10.0683
2 44.4304 10.024 10.9542
1 42.8716 10.4872 9.56227
2 42.6248 11.5136 9.99749
1 42.3181 10.0834 8.33124
2 41.4982 10.6404 7.8131
1 42.6531 8.89903 7.66026
1 43.7012 8.1176 8.19734
2 44.0502 7.21117 7.8027
1 41.9777 8.48841 6.38883
1 45.6017 4.81124 11.1138
1 44.5082 3.89477 11.3616
1 43.9714 3.90482 12.619
2 44.4513 4.54791 13.3799
1 42.8636 3.09709 12.9515
2 42.3291 3.14631 13.9584
1 42.2694 47.4195 11.9628
2 41.5389 46.624 12.2328
1 42.8486 47.3944 10.6565
1 44.0329 3.00284 10.4046
2 44.4975 2.92429 9.42987
1 42.3577 46.4308 9.69061
1 4.70898 5.69227 11.4185
1 6.05846 5.33983 11.6872
1 6.66783 5.59187 12.9347
2 6.23216 6.10565 13.7231
1 8.01405 5.34905 13.1466
2 8.43705 5.47825 14.1423
1 8.80832 4.7499 12.151
2 9.87238 4.51217 12.4079
1 8.26166 4.54924 10.8809
1 6.88325 4.78323 10.6594
2 6.53493 4.65017 9.66859
1 9.15942 4.26464 9.77167
1 3.09759 8.94624 9.53711
1 3.50895 10.2601 8.95752
1 3.28781 11.43 9.63843
2 2.79367 11.4467 10.6151
1 3.70607 12.6438 9.11352
2 3.6744 13.5114 9.79057
1 4.2887 12.669 7.8807
2 4.66338 13.5962 7.49823
1 4.3377 11.4874 7.12907
1 3.92495 10.2552 7.62676
2 4.07447 9.31373 7.11053
1 5.0284 11.4824 5.8126
1 39.569 6.21917 48.0216
1 38.7989 5.43166 47.0718
1 37.4524 5.31091 47.2856
2 36.953 5.94944 2.61835
1 36.7448 4.36883 46.5475
2 35.6075 4.19418 46.6756
1 37.3503 3.63463 45.4971
2 36.863 2.84221 45.0103
1 38.7246 3.76901 45.2366
1 39.4482 4.70461 46.0079
2 40.5105 4.85755 45.7674
1 39.4082 2.91483 44.1861
1 39.7026 6.21717 5.60624
1 39.0491 4.98308 6.23036
1 37.669 4.98249 6.60428
2 37.0947 5.87057 6.4957
1 37.1198 3.81988 7.17561
2 36.1072 3.81073 7.37299
1 37.8686 2.61508 7.26176
2 37.3739 46.9205 7.78238
1 39.239 2.59885 6.89145
1 39.8182 3.84952 6.40714
2 40.8655 3.82695 5.9355
1 40.1341 46.6147 7.22307
1 41.2312 9.61792 47.7493
1 41.5994 10.443 46.5307
1 40.7932 11.5278 46.0425
2 39.9101 11.7863 46.5615
1 41.1691 12.2435 44.9176
2 40.4914 13.1484 44.5915
1 42.2847 11.8461 44.1299
2 42.5244 12.4148 43.2129
1 43.0471 10.7166 44.5346
1 42.7025 10.102 45.7764
2 43.3007 9.17367 46.0533
1 44.085 10.1837 43.6842
1 40.848 42.4966 6.51703
1 40.6227 41.2925 5.68969
1 39.7461 40.2409 5.99532
2 39.1282 40.4 6.86489
1 39.6258 39.1316 5.21463
2 38.9565 38.3776 5.50566
1 40.4289 38.9505 4.11485
2 40.3588 38.0015 3.63608
1 41.2908 39.998 3.7243
1 41.3233 41.1814 4.50964
2 41.8381 41.9747 4.06763
1 42.3486 39.7544 2.73788
1 43.6215 43.517 9.51682
1 44.8424 43.1925 10.289
1 44.9103 43.4293 11.6912
2 44.0018 43.8023 12.1465
1 46.04 43.2653 12.4442
2 46.0428 43.56 13.499
1 47.1922 42.7045 11.7611
2 2.91986 42.4666 12.2161
1 47.144 42.4158 10.4071
1 45.9035 42.6107 9.70602
2 45.8185 42.3873 8.65593
1 3.17763 42.0123 9.67567
1 44.0227 7.71775 40.4528
1 43.0056 6.81694 39.9151
1 42.2063 7.31992 38.886
2 42.3249 8.26069 38.421
1 41.0813 6.5317 38.4806
2 40.3807 6.89988 37.791
1 40.7845 5.31983 39.1161
2 40.0317 4.64962 38.7028
1 41.6443 4.81077 40.1421
1 42.8101 5.56262 40.482
2 43.4813 5.16532 41.1619
1 41.293 3.54916 40.8972
1 46.9978 10.9093 43.1635
1 2.6638 11.9177 43.9063
1 2.65368 13.2849 43.6575
2 47.1907 13.6418 42.8981
1 3.35682 14.2445 44.4008
2 3.40487 15.2391 44.1748
1 4.1253 13.7993 45.4708
2 4.6854 14.5605 45.9811
1 4.16564 12.4558 45.833
1 3.45412 11.505 45.0522
2 3.26136 10.4995 45.4332
1 4.9756 11.996 47.013
1 8.73327 10.1436 4.459
1 9.99764 9.52776 4.95028
1 11.2506 9.97597 4.42006
2 11.3672 10.8013 3.73551
1 12.4079 9.38197 4.90844
2 13.4125 9.68744 4.55829
1 12.3627 8.17077 5.55162
2 13.2687 7.62007 5.62367
1 11.1454 7.63509 5.9835
1 9.98441 8.38908 5.77411
2 9.04909 8.0919 6.20529
1 11.109 6.28019 6.61753
3 45.8011 6.72229 9.34391
3 46.2125 8.32313 10.8077
3 45.8934 5.07713 9.91925
3 46.1158 5.50237 12.0755
3 4.1248 5.33713 10.3573
3 4.10128 6.48871 12.1988
3 3.2688 7.88589 8.88241
3 47.789 8.83676 10.6981
3 40.8076 6.01082 2.73009
3 39.0084 7.25698 3.25797
3 40.9622 6.28535 5.48764
3 38.9541 7.08466 5.07872
3 42.1811 7.34003 5.86178
3 41.2782 9.38669 5.77978
3 42.1239 9.09672 2.95718
3 40.0037 9.49451 48.0448
3 41.3512 43.5067 5.99056
3 40.7269 42.4366 7.77119
3 43.7601 43.775 8.30743
3 42.5205 43.8879 10.0674
3 42.4727 46.5638 8.46809
3 41.9353 45.2957 10.221
3 41.4187 46.6253 7.09975
3 39.6191 45.5613 7.80491
3 45.0779 7.21152 41.0565
3 43.7424 8.96248 40.5066
3 44.6013 9.04043 43.9083
3 44.2848 10.7746 42.5785
3 47.1954 9.66735 43.2937
3 46.0883 11.3712 42.4099
3 2.73394 8.49008 42.1895
3 47.1282 9.22667 40.2894
3 5.27618 10.7364 47.1461
3 5.37642 12.8621 47.8821
3 4.53809 10.8201 4.88237
3 6.1484 12.0249 5.69579
3 7.6682 9.42927 4.41136
3 8.7659 11.3484 3.99659
3 6.87792 10.1165 47.1409
3 8.21403 11.6626 47.9295
3 42.5553 46.529 41.1429
3 40.7167 45.3795 40.5242
3 41.2743 44.9274 43.4926
3 39.9532 44.5678 41.7366
3 40.5941 3.17173 43.8371
3 38.7621 47.1371 43.6028
3 42.2452 2.88565 41.4191
3 40.0903 3.11583 41.028
3 3.07405 4.85783 7.60041
3 43.9851 6.66275 3.62943
3 43.9967 45.2691 5.47815
3 46.205 6.31436 43.857
3 4.77092 8.06488 3.48204
3 43.3723 47.2262 44.486
4 2.62273 5.9698 9.25705
4 47.3613 7.17358 12.0417
4 42.0049 7.21699 3.80696
4 39.6224 8.9825 4.48789
4 42.5759 44.888 7.03355
4 40.6548 44.1734 8.98129
4 46.0088 7.97023 42.7785
4 45.3352 10.2374 40.8467
4 5.87784 9.90017 3.53285
4 6.91128 12.6439 3.91321
4 41.8055 46.8983 43.0559
4 39.3387 46.5195 41.6689
1 5.58043 41.9648 40.5228
1 6.56003 41.1487 41.2257
1 6.91994 39.8296 40.7888
2 6.36997 39.2481 40.0597
1 7.9746 39.1338 41.3502
2 8.35901 38.2828 40.806
1 8.62342 39.6107 42.4516
2 9.43424 39.0495 42.9392
1 8.2254 40.8475 43.0357
1 7.27659 41.6474 42.3455
2 7.12721 42.6954 42.5194
1 8.96486 41.3502 44.2001
1 5.44202 45.6397 38.7132
1 6.35519 46.7127 38.2557
1 6.40938 47.1279 36.9127
2 5.83369 46.7322 36.133
1 7.27138 2.98664 36.6105
2 7.49382 3.32108 35.5801
1 7.80112 3.7874 37.5736
2 8.38154 4.62654 37.3717
1 7.71032 3.42711 38.9635
1 6.93243 47.4769 39.2675
2 6.75422 47.3104 40.3004
1 8.33506 4.19686 40.0362
1 46.5077 44.1262 38.6757
1 45.0177 44.3284 38.4715
1 44.4203 43.5316 37.4635
2 44.955 42.8985 36.7969
1 43.0561 43.6245 37.2191
2 42.5965 43.0089 36.4537
1 42.2145 44.247 38.1973
2 41.1445 44.191 38.1083
1 42.8183 44.9689 39.2743
1 44.2156 45.0178 39.3347
2 44.6491 45.4482 40.1878
1 41.9872 45.6671 40.372
1 47.6731 41.7121 40.5652
1 47.0219 40.4988 41.1063
1 46.7522 39.4417 40.2085
2 47.0059 39.5097 39.1476
1 46.0592 38.3172 40.6288
2 45.8914 37.5227 39.9728
1 45.5813 38.2521 41.9459
2 45.0889 37.3262 42.254
1 45.7757 39.3256 42.8161
1 46.4832 40.4899 42.4102
2 46.752 41.3461 43.0438
1 45.4232 39.2726 44.2139
1 11.6842 43.9668 47.8392
1 12.3915 44.7102 3.53976
1 13.6176 44.2069 4.0049
2 14.137 43.3735 3.48727
1 14.2588 44.7394 5.09728
2 15.1498 44.276 5.51333
1 13.6932 45.8193 5.73094
2 14.2523 46.218 6.57705
1 12.4243 46.3141 5.32727
1 11.7916 45.7868 4.22031
2 10.8654 46.2744 3.86084
1 11.8311 47.3826 6.11872
1 11.5221 44.4266 44.6662
1 12.0771 45.55 43.8399
1 13.2211 45.3015 43.0478
2 13.6758 44.2977 42.961
1 13.7801 46.34 42.2799
2 14.6234 46.0466 41.6532
1 13.1099 47.5489 42.203
2 13.6919 3.12757 41.6797
1 11.9884 2.64776 42.9435
1 11.4096 46.7812 43.7383
2 10.4522 46.9406 44.2359
1 11.2712 3.89237 42.7338
1 10.0365 41.2472 2.8947
1 9.85288 40.5116 4.19012
1 10.8728 39.7324 4.77007
2 11.7515 39.5292 4.23142
1 10.7413 39.213 6.0039
2 11.6363 38.6943 6.40429
1 9.56405 39.3632 6.73365
2 9.58562 38.8092 7.62132
1 8.47199 40.027 6.16855
1 8.68045 40.6737 4.92787
2 7.9169 41.406 4.62809
1 7.2491 40.2948 6.98062
1 9.56724 7.81913 43.3316
1 9.65869 9.03632 44.1577
1 10.7378 9.96048 43.929
2 11.4768 9.63182 43.2228
1 10.7838 11.1635 44.6371
2 11.5582 11.8374 44.4381
1 9.93752 11.3911 45.7135
2 10.1023 12.3496 46.2267
1 8.86869 10.5448 45.9528
1 8.66656 9.40054 45.0808
2 7.67517 8.94754 45.226
1 7.93311 10.7967 47.0137
1 7.55644 7.058 40.9682
1 6.48255 7.85532 40.3714
1 6.76401 8.52976 39.1484
2 7.68489 8.38834 38.5627
1 5.81568 9.39352 38.6454
2 6.00367 9.91408 37.7454
1 4.51026 9.37823 39.1776
2 3.72396 9.89853 38.6345
1 4.26298 8.72593 40.4098
1 5.2442 8.04362 41.0192
2 5.00735 7.45179 41.9225
1 2.89907 8.74149 40.9425
1 7.30635 42.6676 9.36294
1 8.57102 43.4635 9.64199
1 9.72037 42.8416 10.1755
2 9.68471 41.8404 10.573
1 10.9486 43.5023 10.3137
2 11.7628 43.0176 10.8028
1 11.0763 44.766 9.80442
2 12.0069 45.3321 9.8068
1 9.98002 45.4794 9.23954
1 8.71793 44.8463 9.19702
2 7.96486 45.3428 8.62552
1 10.275 46.8128 8.59055
1 4.15091 39.4325 6.8303
1 3.52896 38.4525 5.87202
1 3.38021 37.1339 6.35697
2 3.95419 36.8097 7.27195
1 2.69618 36.2072 5.62371
2 2.65041 35.1848 5.92732
1 47.214 36.6039 4.50695
2 46.5738 35.9131 4.01486
1 47.2028 37.9865 4.08383
1 2.88488 38.8849 4.72367
2 3.02017 39.8799 4.37269
1 46.1624 38.4123 3.09241
1 42.5739 40.2531 45.1946
1 41.5968 40.7304 44.2012
1 40.8782 39.8473 43.3499
2 40.9699 38.7909 43.5552
1 40.0052 40.3218 42.416
2 39.4604 39.6319 41.7656
1 39.8532 41.7525 42.2343
2 39.0824 42.1381 41.6125
1 40.6028 42.6196 42.9825
1 41.5015 42.1173 43.9543
2 42.1212 42.7577 44.5901
1 40.5632 44.1196 42.7717
3 4.7972 42.7438 41.2211
3 5.43612 41.8932 39.2516
3 5.18252 45.4847 39.9579
3 4.83012 44.8926 37.9184
3 47.144 44.8423 39.5457
3 47.0962 43.1352 38.2566
3 3.13078 42.4243 41.313
3 47.7465 41.8781 39.2978
3 10.7001 44.4876 47.2525
3 11.9916 42.7625 47.5819
3 10.5376 44.6004 45.4284
3 12.071 43.2827 44.6562
3 8.65866 42.5064 44.5922
3 9.8664 40.6959 44.7387
3 9.02786 41.8076 47.852
3 11.2099 41.3072 47.8416
3 8.59242 6.96098 43.4712
3 10.5483 7.54881 42.5961
3 7.42303 6.61909 42.2163
3 8.60779 6.78344 40.3044
3 8.17521 3.89108 41.253
3 8.99547 5.29495 39.7703
3 10.4806 4.32745 43.6105
3 11.1576 4.28136 41.5364
3 6.31525 43.1685 8.73327
3 7.3634 41.3763 9.40427
3 6.24506 40.8595 6.47175
3 7.30742 40.2464 8.28549
3 4.54928 40.525 6.36005
3 4.35015 39.1497 8.07036
3 3.16741 41.9377 8.47568
3 4.21553 41.6772 10.2725
3 45.9766 39.6227 2.89413
3 45.5344 37.5234 47.8885
3 45.7923 40.233 44.9727
3 44.6603 38.3498 44.6696
3 43.1572 41.1489 45.9117
3 42.9523 39.0386 45.2079
3 43.0901 40.6655 47.7708
3 42.5979 38.4825 47.9284
3 8.65453 3.7564 8.68861
3 10.4145 4.5382 9.89675
3 10.0051 5.89707 7.10198
3 12.163 5.60924 6.80384
3 10.7938 2.75488 5.71582
3 12.3383 47.6808 7.24055
3 9.28043 47.4441 8.07367
3 11.3981 47.3378 8.57708
3 3.15568 45.6973 42.1994
3 7.29668 44.1787 46.7432
3 7.50105 4.06221 44.5484
3 4.42059 43.9375 6.18218
3 46.2416 42.1926 47.046
3 8.21101 4.11155 5.25186
4 3.642 44.4668 40.6564
4 4.04269 42.9491 38.1338
4 9.13625 43.2647 46.3832
4 11.4443 41.6123 45.7668
4 8.57528 4.95142 42.9523
4 10.5344 6.16289 41.0009
4 4.88194 42.2647 7.39615
4 5.46238 40.2207 9.42477
4 45.021 40.6476 46.7801
4 43.9803 37.7376 46.673
4 9.61035 3.93447 6.82696
4 11.8689 4.18351 8.4094
2 7.06981 44.3298 47.6702
2 6.85327 44.7737 46.0718
2 44.4922 6.69099 2.87907
2 44.4288 6.26852 4.39728
2 43.4981 2.84023 45.0119
2 43.9945 46.4791 44.4512
2 46.9471 5.70595 43.7137
2 45.712 6.3036 44.7292
2 7.35294 3.86248 5.57312
2 8.46111 3.81293 4.39094
2 2.70754 3.97089 7.37876
2 3.6876 5.34437 7.04012
2 4.387 7.6555 2.67145
2 4.92216 7.52955 4.24615
2 4.60833 44.8858 6.44258
2 4.00517 43.7451 5.32599
2 44.1622 44.6619 4.75518
2 44.7122 45.9043 5.60151
2 45.7277 43.0276 46.96
2 47.1894 42.2451 47.2741
2 7.81014 3.14876 44.7083
2 6.64174 4.37467 44.7856
2 3.88257 45.7959 42.821
2 47.6982 46.3838 41.9774
1 3.29229 17.8336 19.3756
1 2.76629 16.7329 20.3231
1 2.86841 15.4166 19.881
2 3.36039 15.1794 18.9504
1 47.5078 14.3531 20.6142
2 47.5845 13.2902 20.2903
1 46.9472 14.6346 21.8615
2 46.5795 13.9039 22.4537
1 46.7369 15.9658 22.2319
1 47.1637 16.9879 21.4191
2 46.9509 18.0451 21.637
1 46.0433 16.301 23.5011
1 46.396 20.6682 17.3375
1 44.973 20.9083 16.9542
1 44.4738 20.6511 15.5936
2 45.1451 20.3614 14.7892
1 43.121 21.0342 15.353
2 42.7326 20.8838 14.3009
1 42.216 21.3223 16.377
2 41.1899 21.3946 16.123
1 42.6861 21.4437 17.6577
1 44.0146 21.2512 17.9605
2 44.3705 21.4356 18.9804
1 41.7748 21.9967 18.7341
1 5.27809 21.5907 16.5982
1 6.3413 22.541 16.0836
1 6.97861 22.2686 14.85
2 6.70099 21.3164 14.3887
1 8.01428 23.1392 14.3609
2 8.58659 22.9511 13.4798
1 8.30644 24.3844 15.0597
2 9.16552 24.9433 14.7361
1 7.6592 24.6693 16.2741
1 6.68224 23.7451 16.7725
2 6.21502 23.8914 17.6886
1 8.0626 25.8366 17.1002
1 6.02963 19.1277 18.8044
1 7.32 18.6536 19.3627
1 8.06699 17.7315 18.6352
2 7.69408 17.3255 17.6699
1 9.21673 17.1517 19.1419
2 9.74858 16.349 18.6918
1 9.67557 17.6645 20.3831
2 10.6305 17.2723 20.7576
1 9.00738 18.6344 21.0989
1 7.78954 19.1297 20.5766
2 7.29225 19.8194 21.2328
1 9.57627 19.2611 22.3793
1 43.1519 17.6039 27.5195
1 42.3141 17.9773 28.6831
1 41.6814 16.9176 29.4646
2 41.862 15.88 29.2905
1 40.9057 17.2573 30.6009
2 40.3025 16.5587 31.1459
1 40.8151 18.5806 30.989
2 40.2695 18.781 31.8965
1 41.3448 19.6163 30.2151
1 42.0916 19.2895 29.1046
2 42.4845 20.0847 28.5088
1 41.2472 21.0092 30.6822
1 42.3807 17.3178 24.5755
1 41.0758 17.6881 24.0323
1 40.0345 16.7065 23.9542
2 40.2321 15.715 24.3653
1 38.7919 17.1347 23.4079
2 37.989 16.4459 23.4376
1 38.638 18.4428 22.8497
2 37.7308 18.7787 22.4735
1 39.7335 19.3186 22.8183
1 40.935 18.9418 23.4479
2 41.8371 19.5483 23.4526
1 39.7211 20.6195 21.9968
1 46.2324 16.3808 27.857
1 46.8932 16.3902 29.1333
1 46.8939 15.2339 29.9007
2 46.5047 14.2956 29.5217
1 47.3884 15.1916 31.2029
2 47.3657 14.3212 31.7898
1 2.71444 16.3781 31.7277
2 3.07999 16.4166 32.7703
1 2.94517 17.4629 30.903
1 47.6623 17.4619 29.5744
2 2.67786 18.3193 28.9708
1 3.71693 18.6306 31.4071
1 38.7139 24.7267 21.5186
1 37.9391 25.8569 22.06
1 36.6838 26.2598 21.5655
2 36.2007 25.7965 20.6953
1 35.9867 27.2969 22.1543
2 34.9963 27.5088 21.7797
1 36.5551 28.059 23.1534
2 35.983 28.9403 23.4851
1 37.8671 27.6937 23.6655
1 38.4689 26.5884 23.1494
2 39.5015 26.2328 23.4164
1 38.5196 28.5641 24.6158
1 40.5197 24.9003 18.9609
1 40.6299 26.0844 18.0884
1 39.879 26.1383 16.8815
2 39.1913 25.2998 16.5888
1 40.0233 27.268 16.0474
2 39.5577 27.3464 15.0917
1 40.9411 28.2552 16.3779
2 40.9982 29.1443 15.7593
1 41.7094 28.1385 17.5101
1 41.5394 27.0798 18.376
2 42.1416 27.0633 19.2323
1 42.7706 29.1722 17.777
1 47.7065 20.4507 33.5725
1 46.224 20.2435 33.8135
1 45.7355 19.1551 34.5547
2 46.4329 18.4009 34.7917
1 44.4384 19.0493 34.9222
2 44.0314 18.1696 35.4969
1 43.5049 19.9675 34.4561
2 42.5482 19.7553 34.7031
1 43.9363 21.0449 33.599
1 45.3102 21.2121 33.3292
2 45.6436 22.0737 32.7278
1 42.896 21.9449 33.0465
1 6.8062 19.4611 30.9175
1 7.82189 18.854 30.0221
1 8.28904 17.5579 30.3589
2 7.92934 16.9693 31.1687
1 9.2991 16.9941 29.5862
2 9.73575 16.0374 29.8281
1 9.79838 17.6151 28.4576
2 10.5061 17.0631 27.8213
1 9.26355 18.8592 28.051
1 8.25204 19.4569 28.8042
2 7.74753 20.3652 28.4739
1 9.72966 19.5371 26.8117
1 11.2279 22.0058 22.5532
1 11.6581 22.8709 21.3731
1 12.8656 22.7328 20.7366
2 13.5262 21.9886 21.0929
1 13.2967 23.6013 19.7245
2 14.2478 23.4961 19.2974
1 12.4829 24.6393 19.2804
2 12.7983 25.317 18.5136
1 11.1889 24.7663 19.8969
1 10.782 23.8892 20.9203
2 9.75857 23.8855 21.3221
1 10.284 25.8046 19.4447
3 3.65602 18.9283 19.936
3 3.20063 17.698 18.1228
3 46.7499 20.7158 18.558
3 47.2217 20.2599 16.4545
3 4.67406 21.8962 17.6241
3 5.28439 20.4149 16.2173
3 5.13327 19.6099 19.6224
3 5.69402 19.0953 17.5598
3 43.5745 18.49 26.6866
3 43.6721 16.4625 27.5205
3 43.2135 18.1861 25.0043
3 42.7239 16.0657 24.6615
3 45.6545 17.4442 23.6548
3 45.7134 15.3681 24.3119
3 46.6013 17.2406 26.9792
3 45.1505 15.7171 27.6834
3 39.9938 24.8032 21.4743
3 38.0474 23.7501 20.9883
3 40.9107 24.9249 20.1857
3 39.9191 23.8651 18.512
3 42.2006 22.1242 19.9043
3 40.5473 22.3307 18.3794
3 40.1615 21.6917 22.5756
3 39.32 20.6043 20.7705
3 2.90503 21.3696 32.7709
3 3.35643 19.5608 34.0095
3 4.07609 19.5639 30.6385
3 4.11283 18.5907 32.6225
3 5.88085 20.2719 30.47
3 6.83834 19.2457 32.1738
3 6.00836 22.479 32.5102
3 6.0334 21.6331 34.5033
3 9.13193 20.5724 26.4262
3 10.6419 18.9842 26.1524
3 8.77334 19.9188 23.1117
3 10.828 19.2439 22.6518
3 10.451 22.4893 23.4307
3 11.6649 20.8105 22.7012
3 10.804 22.6751 25.0861
3 12.5788 21.4696 25.3889
3 43.0145 24.6941 32.3794
3 41.2077 24.6467 33.6537
3 40.4741 24.8581 30.5083
3 38.9347 23.5084 31.0943
3 41.7389 21.9387 30.0089
3 40.7487 21.2161 31.822
3 43.2619 22.8357 32.2493
3 41.6335 21.7763 33.2651
3 3.367 22.4304 20.5607
3 46.2341 19.9602 25.5318
3 42.9389 23.2313 22.4482
3 3.88847 23.0743 30.2817
3 7.31196 22.2122 24.4297
3 43.5408 24.6389 29.2874
4 3.48364 20.8749 19.0817
4 3.69042 19.0879 16.6717
4 45.3284 18.1463 25.5245
4 44.2161 15.2869 25.8114
4 41.154 23.0934 21.3678
4 38.8479 22.3144 19.694
4 4.55816 21.4921 31.547
4 5.54505 19.6869 33.8788
4 9.18631 21.3071 24.5196
4 11.7892 19.6894 24.5588
4 42.2297 23.9445 30.7035
4 40.1569 23.0999 32.7058
1 47.6858 32.7076 31.1646
1 3.18205 33.7884 30.4185
1 3.62702 34.9137 31.0835
2 3.45345 35.0021 32.1186
1 4.4244 35.856 30.4681
2 4.70243 36.6373 31.0523
1 4.84803 35.6697 29.1582
2 5.46613 36.448 28.7365
1 4.38193 34.5629 28.4526
1 3.56401 33.6483 29.0787
2 3.14867 32.891 28.4469
1 4.75908 34.3998 27.0615
1 4.09366 30.7255 33.1371
1 5.55817 30.8821 33.3239
1 6.10187 31.7988 34.2199
2 5.38127 32.4359 34.6931
1 7.47793 31.9608 34.3791
2 7.94107 32.7457 35.0262
1 8.34346 31.0516 33.7421
2 9.38588 31.0865 34.067
1 7.8281 30.0828 32.8016
1 6.42187 30.0138 32.5982
2 6.06705 29.2964 31.9469
1 8.74019 29.2336 31.9758
1 45.4131 28.8962 33.9539
1 44.5165 27.8483 34.6022
1 44.3592 27.7468 35.9576
2 44.88 28.3086 36.6955
1 43.6601 26.6466 36.571
2 43.5934 26.3753 37.6389
1 42.9792 25.782 35.7253
2 42.4438 24.9567 36.0568
1 43.0095 25.9793 34.3108
1 43.8275 26.9576 33.7818
2 44.0307 26.9849 32.7255
1 42.3244 25.1038 33.3868
1 44.6167 32.0431 31.3061
1 43.5331 32.71 30.5589
1 42.9779 33.9648 31.0173
2 43.4837 34.5304 31.8149
1 41.8372 34.4547 30.4901
2 41.5092 35.4643 30.6922
1 41.1143 33.6919 29.5765
2 40.196 34.1037 29.1125
1 41.6304 32.4281 29.1105
1 42.8082 31.9539 29.6359
2 43.1756 30.9164 29.4429
1 40.9127 31.5508 28.1093
1 7.52448 33.2884 23.0032
1 8.48295 32.8973 21.907
1 9.21818 33.8849 21.2557
2 9.04276 34.9154 21.5319
1 10.1651 33.5113 20.3026
2 10.6926 34.169 19.6914
1 10.3331 32.1571 19.9238
2 11.0162 31.9626 19.1084
1 9.59315 31.1925 20.525
1 8.74281 31.5048 21.5482
2 8.22654 30.7115 22.0489
1 9.43232 29.8635 19.8336
1 7.52325 33.5527 26.1548
1 8.53729 33.1633 27.1691
1 9.36201 34.1722 27.7066
2 9.29728 35.1751 27.3263
1 10.2782 33.8855 28.7141
2 10.8642 34.5944 29.19
1 10.2807 32.6443 29.3543
2 10.8025 32.5087 30.3138
1 9.59401 31.5494 28.6969
1 8.78862 31.8139 27.5721
2 8.19216 30.9532 27.2689
1 9.84804 30.1693 29.2009
1 3.56432 34.7569 22.9587
1 47.5263 34.9785 22.222
1 46.9706 36.273 22.1058
2 47.4802 37.0591 22.6417
1 45.9612 36.5548 21.1383
2 45.5086 37.5471 21.0632
1 45.4176 35.4792 20.3788
2 44.71 35.7282 19.6387
1 45.8589 34.1674 20.5939
1 46.8694 33.9233 21.5413
2 47.394 32.9939 21.607
1 45.545 32.9562 19.7603
1 11.7022 26.2644 28.8816
1 12.5268 25.4683 27.9786
1 13.8622 25.8795 27.6228
2 14.2947 26.7778 28.0167
1 14.5053 25.2309 26.5546
2 15.4811 25.576 26.2478
1 13.96 24.1304 25.8886
2 14.5058 23.6544 25.1195
1 12.7102 23.6713 26.2464
1 12.0421 24.2762 27.3578
2 11.149 23.8243 27.7011
1 11.9848 22.5455 25.5987
1 9.4591 26.1566 32.3913
1 8.95917 25.2796 33.4163
1 9.4479 25.2916 34.723
2 10.2909 25.93 34.9191
1 8.93857 24.4731 35.7036
2 9.35729 24.5268 36.6623
1 7.74843 23.7519 35.4512
2 7.17467 23.1669 36.1926
1 7.22938 23.7314 34.1117
1 7.90355 24.4619 33.1343
2 7.48716 24.4024 32.1166
1 6.30034 22.602 33.7043
1 46.9316 30.0355 16.9977
1 2.91655 29.604 16.2097
1 3.12621 29.9634 14.8529
2 47.5217 30.4727 14.3234
1 4.38749 29.6926 14.2428
2 4.48642 30.0026 13.1594
1 5.4127 29.1026 14.9431
2 6.31232 28.7706 14.5016
1 5.30758 29.0277 16.3252
1 4.0511 29.1259 16.9339
2 3.93097 29.0278 18.0078
1 6.46343 28.5589 17.1604
1 42.773 31.6778 19.7522
1 41.6508 32.1303 20.5417
1 40.7465 33.0229 20.0321
2 40.9455 33.4605 19.0508
1 39.5027 33.299 20.633
2 38.7814 33.9093 20.1492
1 39.3561 32.8696 21.9258
2 38.5294 33.2755 22.4789
1 40.1943 31.9841 22.5216
1 41.3028 31.4868 21.7566
2 41.9855 30.7625 22.1933
1 39.8678 31.3721 23.8707
1 38.3343 28.546 27.7443
1 37.8234 27.423 28.5774
1 36.4658 27.3292 28.9267
2 35.7444 28.0353 28.6011
1 35.9755 26.304 29.7473
2 34.8657 26.1961 30.0032
1 36.8748 25.3729 30.2333
2 36.5085 24.6161 30.8421
1 38.2387 25.4047 29.8866
1 38.7236 26.4576 29.0255
2 39.7558 26.5234 28.8279
1 39.2476 24.5379 30.5057
3 47.2184 31.666 30.5576
3 47.7327 32.7244 32.4387
3 3.634 29.9126 32.28
3 3.3267 31.6309 33.5688
3 45.55 28.9105 32.6916
3 45.8352 29.9084 34.608
3 45.4517 31.2942 30.721
3 44.7054 32.1662 32.5379
3 7.01231 32.4635 23.8257
3 7.12151 34.5147 23.0512
3 6.9824 32.6223 25.4633
3 7.08413 34.752 26.0556
3 4.41469 33.3379 26.4216
3 5.60771 35.247 26.5482
3 4.12841 33.642 22.8886
3 3.89358 35.5379 23.9066
3 10.4703 26.0313 28.9845
3 12.1686 27.3748 29.3557
3 8.60021 26.5863 31.5581
3 10.6764 26.5607 32.3673
3 8.33888 28.1606 31.4245
3 9.93578 29.6245 31.7432
3 9.18875 29.224 28.7191
3 10.5958 29.9055 30.1837
3 46.5674 29.2867 18.0212
3 46.2486 31.0794 16.6632
3 45.9741 31.7724 20.0682
3 44.7403 33.1377 18.7735
3 43.3757 30.5877 20.031
3 43.2414 32.4537 18.8235
3 43.425 29.1258 18.8656
3 42.9839 30.0937 16.9568
3 40.8082 30.9571 24.5756
3 38.6679 31.2099 24.2271
3 41.2855 30.3541 27.8925
3 39.8384 31.9798 27.5193
3 39.4534 28.4141 27.1456
3 37.6989 29.6026 27.6371
3 39.4005 28.1056 25.3399
3 38.0879 29.7551 24.7859
3 7.88105 25.784 18.3456
3 8.46627 26.8836 16.4638
3 9.05231 25.8422 19.8237
3 10.6737 26.5715 18.5389
3 8.76794 28.9814 20.4299
3 9.66708 29.7304 18.5935
3 6.23279 28.2296 18.343
3 7.65107 28.4523 16.6798
3 47.2115 28.2185 30.275
3 4.11898 30.9073 24.3097
3 7.4879 26.6873 28.3013
3 45.9489 28.6019 20.9665
3 42.5192 28.5849 25.8321
3 6.40482 26.7726 21.2999
4 46.8703 29.888 31.4902
4 46.4751 31.7163 33.831
4 5.03007 32.7233 24.5274
4 5.85868 35.4606 24.4113
4 9.03237 27.3345 29.5888
4 11.367 28.0845 31.1126
4 45.3498 29.8616 19.5346
4 44.4235 31.6483 17.2258
4 40.7989 29.5638 26.0638
4 38.2981 31.0956 26.3835
4 7.63543 27.3931 19.6766
4 9.69433 28.0401 17.5246
2 3.31411 30.628 24.7393
2 4.64351 30.2218 23.8694
2 47.1331 20.0141 25.0726
2 46.2014 20.5098 26.3223
2 43.4386 25.5327 28.8852
2 44.3763 24.1336 29.0621
2 4.28511 23.9505 30.5244
2 3.29059 23.0249 29.5286
2 6.70401 26.3659 22.1656
2 5.51005 26.5924 20.9497
2 3.13349 23.2899 20.2374
2 3.10287 22.0517 21.4695
2 6.64471 21.9595 23.7609
2 7.03947 22.9468 24.9327
2 46.8816 28.556 21.0044
2 45.449 28.3076 21.7451
2 43.7456 23.5041 21.9612
2 43.0119 22.9354 23.3424
2 42.454 27.6532 26.0571
2 43.2354 28.8941 25.2647
2 7.48961 25.7934 27.9602
2 6.85536 27.3642 27.9938
2 47.5068 27.2875 30.4471
2 46.7284 28.3745 29.4215
1 33.2946 47.0143 20.1411
1 33.5315 45.5278 20.1947
1 34.7094 45.0359 19.6632
2 35.5401 45.7032 19.213
1 34.8582 43.6479 19.5109
2 35.7348 43.3339 19.0454
1 33.9995 42.7356 20.1296
2 34.3039 41.6648 20.2352
1 32.7876 43.2432 20.6047
1 32.5612 44.6373 20.6414
2 31.7137 45.0242 21.1477
1 31.6679 42.3076 20.9218
1 30.8553 4.30258 17.8289
1 29.9229 4.32893 16.6439
1 30.3725 4.41047 15.3434
2 31.3655 4.75832 15.0752
1 29.4828 4.14565 14.2626
2 29.8897 4.16278 13.2562
1 28.178 3.77258 14.5059
2 27.6146 3.34351 13.6343
1 27.6741 3.64153 15.843
1 28.5419 3.9898 16.9033
2 28.2377 3.76391 17.9422
1 26.4541 2.88607 16.1246
1 31.8409 6.84323 19.7034
1 31.4339 8.27134 19.786
1 32.2469 9.24065 19.2162
2 33.1841 8.98028 18.8183
1 31.903 10.5901 19.3099
2 32.5609 11.2833 18.8408
1 30.7205 11.0164 19.9622
2 30.4679 12.0763 20.0846
1 29.9006 10.0047 20.5467
1 30.2241 8.67832 20.4557
2 29.6825 7.92972 21.052
1 28.6757 10.4066 21.2896
1 33.7394 5.88092 21.7768
1 34.34 6.66523 22.884
1 35.5477 7.29008 22.6804
2 36.0727 7.1768 21.7442
1 36.1932 7.88681 23.7356
2 37.2371 8.21676 23.6023
1 35.6052 7.90223 25.0101
2 36.1076 8.42432 25.8858
1 34.3026 7.39767 25.2509
1 33.6783 6.7902 24.125
2 32.6358 6.48131 24.2109
1 33.562 7.52999 26.554
1 28.7773 38.8303 23.3431
1 28.2341 37.8951 24.2775
1 28.7544 36.6076 24.3549
2 29.4203 36.3672 23.5621
1 28.287 35.7064 25.2551
2 28.7154 34.6941 25.2183
1 27.256 36.0238 26.1565
2 26.7925 35.3597 26.8989
1 26.686 37.3483 26.0931
1 27.1841 38.2283 25.1326
2 26.7986 39.245 25.1225
1 25.9529 37.9521 27.2389
1 27.9711 40.7081 19.5802
1 27.2288 40.9144 18.3472
1 27.1094 39.9639 17.307
2 27.447 38.9455 17.4529
1 26.4156 40.289 16.1482
2 26.1362 39.5079 15.4151
1 25.9739 41.5894 15.8922
2 25.4904 41.8283 14.9957
1 26.1608 42.5312 16.8611
1 26.7419 42.21 18.0944
2 26.7437 42.9174 18.8818
1 25.6157 43.8848 16.6922
1 31.4056 40.4822 23.5337
1 32.4205 40.4205 24.659
1 33.19 39.2304 24.8097
2 33.2573 38.4275 24.0912
1 34.036 39.1141 25.9699
2 34.6723 38.2171 26.1448
1 34.0375 40.1191 26.977
2 34.6981 39.9717 27.8311
1 33.2226 41.2827 26.8543
1 32.3692 41.3509 25.6792
2 31.8194 42.229 25.6392
1 33.1948 42.3078 27.9058
1 22.4751 44.6647 16.9747
1 21.2791 43.8275 17.2715
1 20.4366 43.4176 16.2029
2 20.6837 43.5387 15.0943
1 19.3107 42.6673 16.4324
2 18.6952 42.2346 15.6828
1 19.0881 42.2586 17.7507
2 18.2448 41.5531 17.9286
1 19.8984 42.7504 18.8108
1 20.9577 43.6039 18.5537
2 21.6029 43.9755 19.3686
1 19.5901 42.4319 20.2045
1 22.2141 47.6777 16.436
1 20.9658 3.2194 16.5246
1 20.0532 3.40025 15.4183
2 20.2148 3.08682 14.4183
1 18.9047 4.17009 15.5879
2 18.3035 4.34859 14.7466
1 18.7142 4.87311 16.7622
2 17.9109 5.61247 16.8807
1 19.4709 4.57106 17.8678
1 20.6029 3.73683 17.7573
2 21.1158 3.52222 18.6605
1 19.158 5.17866 19.2271
1 31.3805 41.6118 30.4112
1 30.6088 40.3412 30.4414
1 31.3382 39.1271 30.6631
2 32.4343 39.0653 30.709
1 30.5972 37.9334 30.7594
2 31.091 37.0194 31.0675
1 29.1958 37.9394 30.5761
2 28.7503 36.9425 30.6816
1 28.5585 39.0749 30.1801
1 29.2221 40.3128 30.2647
2 28.6391 41.1879 30.2903
1 27.0999 39.0159 29.854
1 34.3378 45.8895 29.626
1 35.0316 47.215 29.2741
1 36.3753 47.3239 29.0188
2 37.0051 46.4953 29.1479
1 36.9568 3.40738 28.7363
2 38.0553 3.41737 28.6482
1 36.1895 4.55148 28.6925
2 36.676 5.45525 28.4383
1 34.8628 4.4293 29.0026
1 34.2875 3.20496 29.2724
2 33.2231 3.12135 29.3896
1 33.9967 5.67371 29.0483
1 31.7063 9.82237 27.494
1 31.219 10.9333 26.6665
1 31.9691 12.0988 26.5558
2 32.8931 12.2073 27.0877
1 31.5528 13.1024 25.6976
2 32.2094 13.9432 25.617
1 30.4128 12.9506 24.9689
2 30.065 13.7093 24.233
1 29.5842 11.8282 25.1039
1 29.9936 10.8168 25.982
2 29.4043 9.93826 26.1145
1 28.3366 11.6356 24.283
3 32.0877 47.4147 20.2443
3 34.2558 2.69054 19.9019
3 30.4068 4.50712 19.0484
3 32.1186 4.2064 17.6701
3 30.9418 5.96147 19.9011
3 33.057 6.51275 19.3762
3 32.7714 5.0908 21.9899
3 34.135 5.95932 20.5594
3 28.2147 40.0126 23.188
3 29.8697 38.5719 22.6933
3 28.1274 41.6484 20.4088
3 28.7924 39.717 19.6902
3 30.8362 42.5822 21.8831
3 31.6683 41.1699 20.3365
3 30.7582 41.5361 23.2813
3 31.2989 39.4326 22.8213
3 22.8081 45.6637 17.7599
3 23.1154 44.512 15.9
3 22.7744 47.2601 17.5183
3 22.6241 47.2516 15.2632
3 25.7409 2.99219 17.1896
3 25.9842 47.2935 15.2021
3 25.7413 44.7274 17.585
3 24.8197 44.1248 15.695
3 30.7703 42.7215 30.2961
3 32.6733 41.585 30.3641
3 32.5662 43.3986 27.7845
3 33.6335 42.022 29.0633
3 33.1293 45.9079 30.0648
3 34.8906 44.7039 29.5062
3 30.8534 44.0799 31.2444
3 32.8627 44.0548 32.1258
3 32.7669 5.52866 28.9834
3 34.5389 6.82531 29.0354
3 32.261 7.44313 26.6159
3 34.1814 7.90161 27.6036
3 31.2388 8.66979 27.2018
3 32.6721 9.96805 28.367
3 30.613 7.89087 30.0656
3 32.4931 8.24226 31.1062
3 23.0326 40.5268 29.8689
3 23.8774 39.0433 31.3057
3 23.5595 39.1618 26.9893
3 22.8379 37.5788 28.3047
3 25.2555 39.0162 26.9706
3 25.7906 37.3755 28.3265
3 26.5335 40.0891 29.4464
3 26.4513 37.9244 29.8707
3 29.8442 3.29425 22.0201
3 27.7275 43.1411 23.1253
3 25.4631 46.5509 19.7881
3 30.443 45.8862 28.3502
3 29.4744 5.88287 28.1879
3 24.8454 42.3358 27.8846
4 31.4228 4.08703 20.7544
4 33.7895 4.58953 18.885
4 28.9588 41.7634 22.2297
4 30.5462 39.4946 20.7963
4 24.802 46.5016 17.8439
4 24.2955 46.008 14.9194
4 31.7575 44.5145 29.3674
4 34.0042 43.2059 30.6541
4 31.3307 6.91103 28.4182
4 33.7346 8.63119 29.5569
4 24.518 40.3472 28.4972
4 24.3386 37.7425 29.8607
1 18.0266 2.83827 31.8308
1 17.9377 4.2778 32.1411
1 17.0172 4.66774 33.1352
2 16.5598 3.88837 33.6783
1 16.8987 5.9818 33.4585
2 16.2863 6.19514 34.3172
1 17.5549 6.9961 32.7436
2 17.318 8.06108 33.0142
1 18.4967 6.59966 31.7253
1 18.7614 5.22687 31.5095
2 19.521 4.93111 30.7777
1 19.126 7.64729 30.9728
1 20.2108 46.0806 33.2989
1 21.0075 46.3669 34.5401
1 20.532 46.112 35.8511
2 19.5556 45.6921 35.9754
1 21.3682 46.316 36.9171
2 21.0161 46.0008 37.9462
1 22.7165 46.7586 36.7118
2 23.3389 47.1047 37.534
1 23.184 47.1418 35.4707
1 22.3371 46.8505 34.3583
2 22.6726 47.0223 33.3462
1 24.5183 2.61701 35.2124
1 19.7047 43.3217 32.2192
1 20.4112 42.1895 32.7079
1 20.1027 41.3522 33.8085
2 19.1313 41.4727 34.3346
1 20.926 40.2097 34.1426
2 20.6311 39.5773 34.96
1 21.9012 39.7962 33.2484
2 22.2796 38.792 33.354
1 22.1623 40.5536 32.086
1 21.479 41.7459 31.8874
2 21.7771 42.1983 30.9564
1 23.1029 40.041 31.0692
1 17.2408 44.6593 29.3787
1 16.5415 44.3288 28.1115
1 15.1395 44.5134 28.0024
2 14.5526 44.9291 28.8244
1 14.4765 44.1149 26.8291
2 13.4086 44.1355 26.6963
1 15.2571 43.531 25.7344
2 14.7298 43.0488 24.9361
1 16.628 43.3113 25.8955
1 17.2615 43.8099 27.0276
2 18.3474 43.7866 27.1871
1 17.3975 42.7428 24.7892
1 22.5014 11.1308 28.8467
1 23.4145 11.9676 28.113
1 23.7062 13.2485 28.554
2 23.129 13.6148 29.4643
1 24.3956 14.202 27.7117
2 24.5591 15.2735 28.06
1 24.8726 13.7395 26.4555
2 25.3517 14.5057 25.8194
1 24.775 12.4321 26.0806
1 24.0156 11.522 26.9023
2 23.8826 10.4571 26.5702
1 25.2669 11.9731 24.7791
1 21.7383 8.61595 32.2658
1 22.3331 8.12809 33.5953
1 21.8675 8.70582 34.7666
2 21.067 9.47436 34.7511
1 22.3677 8.23441 36.0182
2 22.0428 8.59055 36.9557
1 23.3713 7.218 36.0954
2 23.7191 6.86201 37.1309
1 23.9225 6.72599 34.8908