2544
 Atoms. Timestep: 0
1 50.3899 6.51742 4.31544
1 49.4034 7.33195 3.47544
1 48.9671 8.57578 3.97418
2 49.4716 9.05131 4.77594
1 48.0439 9.31868 3.3169
2 47.6466 10.1805 3.75469
1 47.4133 8.78156 2.16014
2 46.7138 9.40356 1.54854
1 47.7168 7.47732 1.72529
1 48.7139 6.73944 2.40261
2 48.9687 5.7442 2.07655
1 47.0239 6.93128 0.542161
1 49.9778 3.49265 7.07649
1 48.8494 2.72554 7.70973
1 48.4361 3.01962 9.03415
2 48.9339 3.72374 9.5695
1 47.3225 2.36405 9.57744
2 47.0734 2.53573 10.5831
1 46.5512 1.47316 8.84915
2 45.5625 1.18186 9.28082
1 46.8996 1.23743 7.52203
1 48.1166 1.81838 6.94972
2 48.3298 1.57609 5.88476
1 45.9939 0.418812 6.6387
1 1.43422 3.77199 6.57515
1 2.75631 3.32126 6.99873
1 3.5108 3.9012 8.04011
2 3.15591 4.79134 8.54068
1 4.77814 3.39424 8.48038
2 5.33285 3.9484 9.28635
1 5.18589 2.20778 7.88446
2 6.17132 1.82092 8.20033
1 4.48265 1.56905 6.84115
1 3.31825 2.19457 6.34391
2 2.81618 1.7905 5.49582
1 5.10564 0.39196 6.20788
1 0.774317 6.15561 4.46688
1 1.74205 7.05334 3.82662
1 2.37179 8.10258 4.60786
2 2.12208 8.25935 5.59981
1 3.43157 8.76473 4.07816
2 3.80207 9.69899 4.53703
1 3.86076 8.42534 2.79155
2 4.6185 9.08538 2.35126
1 3.27266 7.41958 1.99769
1 2.20532 6.70717 2.57228
2 1.80628 5.8411 2.0556
1 3.96246 6.91548 0.733276
1 44.155 4.66002 49.838
1 43.3592 4.06623 48.7223
1 42.1858 4.6712 48.2107
2 41.7897 5.56227 48.6614
1 41.5292 4.15278 47.1258
2 40.5971 4.57208 46.7243
1 42.0709 2.99459 46.5413
2 41.4452 2.54027 45.8021
1 43.2009 2.33982 47.0236
1 43.8491 2.91497 48.1399
2 44.761 2.51596 48.4138
1 43.7036 1.11952 46.3806
1 43.6102 4.39873 0.0248434
1 42.6501 3.56384 0.83771
1 41.2829 3.78964 0.835886
2 40.8467 4.47023 0.190706
1 40.4597 2.99897 1.67403
2 39.4209 3.22568 1.78655
1 41.0033 2.14266 2.64496
2 40.3345 1.61704 3.36131
1 42.3923 1.97882 2.75272
1 43.204 2.62533 1.75219
2 44.2343 2.45066 1.75103
1 43.0781 0.969947 3.57521
1 46.5184 6.61174 49.503
1 47.2792 7.08804 48.3713
1 47.1201 8.40521 47.9445
2 46.4506 9.0605 48.5091
1 47.9059 8.91553 46.8844
2 47.707 9.98456 46.5151
1 48.8893 8.12929 46.3067
2 49.4059 8.52601 45.4661
1 48.9894 6.76371 46.6354
1 48.2569 6.29854 47.6961
2 48.3642 5.35798 48.0699
1 49.9239 5.88835 45.857
1 43.3958 49.6681 3.97556
1 42.9194 48.4535 3.34582
1 41.6923 47.8289 3.8021
2 41.0668 48.2414 4.58347
1 41.1791 46.7002 3.12346
2 40.2649 46.3084 3.46088
1 41.8965 46.2027 1.99788
2 41.5771 45.2929 1.53381
1 43.0636 46.8114 1.54742
1 43.5652 47.9236 2.17468
2 44.4668 48.3228 1.82518
1 43.8186 46.2357 0.364212
1 45.3043 49.9839 6.42697
1 45.9015 48.7552 7.04227
1 45.1445 47.8828 7.89201
2 44.1637 48.0778 8.21758
1 45.7037 46.6653 8.35576
2 45.1166 46.0559 9.0525
1 47.0477 46.3577 8.09948
2 47.4283 45.4538 8.64988
1 47.825 47.2403 7.24937
1 47.2318 48.4223 6.71761
2 47.8477 49.1169 6.1099
1 49.1843 46.8589 6.93283
1 49.3306 3.78392 43.6485
1 48.0307 3.31368 43.094
1 47.4425 3.92543 41.957
2 47.8789 4.79535 41.5326
1 46.207 3.46561 41.5153
2 45.7305 3.95623 40.637
1 45.5216 2.39724 42.1905
2 44.5587 2.00457 41.9
1 46.1583 1.75076 43.262
1 47.428 2.20027 43.727
2 47.7107 1.81208 44.6729
1 45.5032 0.672713 43.9979
1 0.253082 6.26115 46.1611
1 1.08684 7.1428 46.9802
1 0.900377 8.53282 47.0034
2 0.238563 9.02305 46.3583
1 1.72296 9.30785 47.8505
2 1.7185 10.396 47.8525
1 2.60687 8.73566 48.6996
2 3.17849 9.35331 49.419
1 2.78971 7.34678 48.7317
1 2.0236 6.57979 47.8775
2 2.10432 5.51273 47.9824
1 3.68032 6.73542 49.7219
1 6.42709 4.69797 0.562303
1 7.11214 4.14281 1.76056
1 7.81396 5.01323 2.62638
2 7.87534 6.13609 2.37415
1 8.33892 4.56759 3.82346
2 8.84255 5.29864 4.3906
1 8.25314 3.20045 4.19751
2 8.69371 2.91578 5.13354
1 7.44085 2.30716 3.38193
1 6.8653 2.80549 2.16162
2 6.20591 2.16335 1.54462
1 7.17211 0.908933 3.83257
3 51.0343 5.54854 3.77408
3 50.5162 6.71195 5.5807
3 50.0167 3.53074 5.79372
3 50.6747 4.29473 7.77307
3 0.70908 3.06791 5.82122
3 1.00688 4.94298 6.91537
3 -0.107875 5.46377 3.78716
3 0.749434 6.18334 5.74369
3 45.3978 4.3149 49.9092
3 43.6182 5.49394 50.6621
3 44.8018 4.00631 -0.135019
3 43.3167 5.54545 -0.439417
3 47.5925 6.05066 -0.195511
3 45.8236 7.21666 0.371981
3 46.6154 5.37742 49.8212
3 45.763 7.39892 50.2066
3 44.3665 50.2272 3.4275
3 42.9565 50.1672 5.0325
3 46.0315 50.8025 5.75564
3 44.0462 50.1131 6.39517
3 46.5314 -0.393656 5.78201
3 44.7354 0.615284 6.65637
3 44.3465 0.924354 3.64333
3 42.393 0.229282 4.34154
3 49.6619 3.42234 44.8663
3 49.9624 4.64939 43.0633
3 49.8344 4.64201 46.0669
3 50.7334 6.42758 45.0794
3 0.118383 5.08104 46.4571
3 -0.494293 6.73245 45.2414
3 -0.313067 2.45429 44.3329
3 0.573177 4.23701 43.317
3 3.96217 5.47385 49.7347
3 4.22144 7.47227 50.5902
3 3.3388 6.11662 -0.0235814
3 5.22363 7.14428 0.5888
3 5.69477 3.94414 -0.167388
3 6.42781 6.01428 0.421366
3 5.34028 4.56817 49.7866
3 7.118 5.5179 50.7466
3 46.5692 51.1897 44.4902
3 44.7656 50.1472 43.7814
3 44.3101 49.7651 46.4652
3 42.3344 50.6071 46.0437
3 44.5784 0.361799 46.9541
3 43.1534 0.698001 45.3017
3 46.1486 -0.123547 44.7344
3 44.2173 0.569332 43.9386
3 51.4062 2.25098 3.46644
3 47.8851 3.34415 -1.09758
3 46.5892 -0.776719 2.40185
3 -0.918394 2.25342 47.4186
3 2.82632 3.11039 51.8258
3 46.9126 51.1169 47.8404
4 -1.02619 3.75892 4.76295
4 -1.02152 5.86716 6.95195
4 46.3639 4.6629 51.7917
4 44.5159 7.04296 51.8537
4 45.3694 -0.855809 4.08688
4 43.2528 -0.733644 5.9852
4 51.5694 3.47692 45.8659
4 -1.00713 5.55381 43.5002
4 4.18299 4.59004 51.6272
4 6.00632 7.0677 51.6508
4 45.5624 51.4376 46.2859
4 43.1434 51.5215 44.3805
1 0.497989 43.6995 45.5856
1 1.63188 42.9793 46.1941
1 2.34125 42.0859 45.4048
2 2.03351 41.8301 44.3812
1 3.53725 41.4363 45.8519
2 4.03895 40.7576 45.2561
1 4.0417 41.764 47.1706
2 4.91674 41.2443 47.5146
1 3.40259 42.7356 47.9236
1 2.25144 43.4067 47.3772
2 1.75422 44.1165 48.0032
1 3.91467 43.1688 49.2911
1 1.08413 46.2629 44.0799
1 2.48329 46.6384 43.798
1 3.34219 45.6638 43.3516
2 2.91053 44.7436 43.0625
1 4.7516 45.9513 43.3148
2 5.48147 45.2314 42.9152
1 5.24459 47.2495 43.5793
2 6.30148 47.4392 43.4452
1 4.33818 48.2028 44.0703
1 2.96992 47.895 44.2051
2 2.256 48.5478 44.6016
1 4.84945 49.5089 44.5196
1 49.7102 46.7957 43.4315
1 48.7391 47.7077 42.8154
1 48.4538 47.6226 41.4324
2 48.975 46.9022 40.8302
1 47.4408 48.3754 40.8846
2 47.2832 48.3233 39.757
1 46.6515 49.2622 41.6327
2 45.7902 49.681 41.1611
1 46.9105 49.3716 42.979
1 47.9705 48.6642 43.5885
2 48.2306 48.8466 44.6421
1 46.0382 50.2599 43.7744
1 50.0638 43.6158 46.1116
1 49.1442 42.8118 46.9761
1 48.7094 41.5598 46.6203
2 49.0418 41.0182 45.7829
1 47.6284 40.9543 47.257
2 47.3208 39.9682 47.0246
1 46.9107 41.6493 48.2291
2 46.0049 41.1376 48.602
1 47.2895 42.9491 48.5879
1 48.4951 43.4718 47.9767
2 48.7513 44.5093 48.2048
1 46.5358 43.6571 49.611
1 6.57732 45.651 -0.144654
1 7.47066 46.4867 0.698311
1 8.83875 46.2474 0.744906
2 9.17633 45.4152 0.120001
1 9.69239 47.1212 1.43551
2 10.7744 47.0942 1.35537
1 9.15859 48.26 2.08264
2 9.86737 48.943 2.55008
1 7.78978 48.3753 2.18902
1 6.95422 47.57 1.41101
2 5.87067 47.7767 1.44209
1 7.21725 49.4081 3.11446
1 6.23566 45.4107 49.8674
1 6.92021 46.0169 48.69
1 7.7302 45.1965 47.8506
2 7.97935 44.166 48.1411
1 8.28065 45.7289 46.6504
2 8.97372 45.206 45.9738
1 7.90419 47.0361 46.268
2 8.30342 47.4133 45.3168
1 7.20779 47.8517 47.1583
1 6.70693 47.3701 48.3756
2 6.06104 47.9823 49.0394
1 6.87486 49.2411 46.7491
1 3.14155 43.6396 0.33336
1 2.18208 43.0656 1.35891
1 2.05238 41.6962 1.52435
2 2.5905 41.0018 0.843672
1 1.29489 41.1877 2.53571
2 1.30825 40.1281 2.69309
1 0.627549 42.0378 3.41869
2 0.0568402 41.528 4.18429
1 0.628153 43.4196 3.19875
1 1.4219 43.9647 2.2015
2 1.54532 45.029 2.11866
1 -0.0921349 44.3219 4.11672
1 7.19535 0.827295 46.8439
1 7.71875 2.05567 47.4832
1 9.12639 2.2822 47.3808
2 9.79708 1.64191 46.7912
1 9.69145 3.31613 48.1778
2 10.7422 3.56163 48.1268
1 8.89096 4.0995 49.0219
2 9.33984 4.83543 49.6608
1 7.46467 3.95091 48.983
1 6.85268 2.9563 48.1649
2 5.77936 2.74832 48.1235
1 6.60656 4.73361 49.8674
1 4.38519 -0.294773 43.9975
1 3.45358 0.488668 43.1645
1 3.68298 0.604367 41.8191
2 4.45049 -0.00574687 41.3451
1 2.83658 1.40073 41.0656
2 3.00095 1.53731 40.0222
1 1.88334 2.23923 41.6496
2 1.22505 2.77605 41.0401
1 1.63369 2.07352 43.0023
1 2.44279 1.27057 43.7649
2 2.2316 1.25659 44.867
1 0.59271 2.96483 43.5988
1 0.751433 47.1776 7.13089
1 1.97877 47.8325 7.63204
1 2.44073 47.5397 8.88691
2 1.79308 46.8956 9.52893
1 3.48702 48.2354 9.42702
2 3.73537 48.0066 10.421
1 4.24055 49.1437 8.67829
2 5.19557 49.5825 9.05123
1 3.83949 49.3728 7.37333
1 2.71305 48.725 6.80958
2 2.52781 48.8512 5.76327
1 4.70446 50.0842 6.44046
1 49.5312 44.8291 4.79985
1 48.324 44.1567 4.24545
1 47.6141 43.243 5.03538
2 47.9069 43.1048 6.06619
1 46.4349 42.6728 4.59908
2 45.961 41.8849 5.19576
1 45.9575 43.0297 3.32982
2 45.0537 42.5419 2.96743
1 46.6227 43.8984 2.46344
1 47.8185 44.4413 2.91904
2 48.2624 45.2043 2.36033
1 46.1114 44.2225 1.14859
1 43.7294 46.3954 50.323
1 42.787 47.1754 49.5337
1 41.3815 46.8983 49.5134
2 40.8895 46.2392 50.1767
1 40.553 47.7175 48.711
2 39.5108 47.7246 48.8223
1 41.1283 48.59 47.7927
2 40.5248 49.0722 47.0741
1 42.4566 48.8235 47.7234
1 43.3046 48.132 48.6267
2 44.4101 48.3043 48.5404
1 43.0431 49.7247 46.6629
3 -0.275415 44.3545 46.3228
3 0.403892 43.7639 44.3058
3 0.441211 46.8763 45.0142
3 0.524684 45.3102 43.4199
3 49.8885 46.885 44.6822
3 50.3774 46.0331 42.7075
3 50.9412 44.3499 46.7143
3 50.0273 43.5619 44.8452
3 5.63878 46.2306 -0.820897
3 6.72151 44.4128 -0.250075
3 5.552 46.1936 50.6144
3 6.24914 44.1697 50.0848
3 3.26519 43.9362 50.0565
3 5.13153 42.8577 49.5932
3 3.28248 44.8782 0.278663
3 3.84903 42.814 -0.318665
3 6.01731 0.448271 47.152
3 7.88897 0.19257 45.9587
3 3.98222 -0.850174 45.0705
3 5.61057 -0.264998 43.7524
3 4.2084 50.2119 45.4006
3 6.06602 49.8204 44.2248
3 6.05361 49.9291 47.4341
3 7.33162 49.6495 45.6103
3 0.51554 47.2131 5.89523
3 -0.0708135 46.5924 7.87927
3 -0.82348 45.2588 3.6845
3 -0.163728 44.0655 5.35474
3 50.356 45.4065 4.02327
3 49.8004 44.6607 6.03426
3 49.7846 47.526 5.99086
3 49.6247 45.7381 7.3211
3 46.5453 45.2949 0.650134
3 45.2672 43.5007 0.563723
3 46.9949 44.7071 50.1503
3 45.5157 43.1869 50.1696
3 44.9156 46.7905 50.3953
3 43.3073 45.332 50.9012
3 45.0679 46.4925 0.185436
3 43.2723 45.3303 -0.343868
3 4.3828 -0.269012 5.41413
3 6.39921 0.198951 6.30314
3 6.41259 0.192092 3.08957
3 7.48777 0.47594 4.98622
3 5.99006 49.624 3.12251
3 8.03423 50.1456 3.80898
3 4.16834 50.883 5.61076
3 5.98266 49.994 6.52023
3 51.264 47.5889 47.2717
3 2.28755 46.6516 51.2821
3 3.78999 -0.867004 48.3246
3 -0.800417 48.6952 3.70712
3 48.0207 47.3992 51.7768
3 3.54267 51.3249 2.26567
4 51.5048 46.2078 45.8309
4 51.2982 44.3523 43.3946
4 3.86656 45.366 51.4688
4 5.65107 43.0075 51.6571
4 5.00692 -1.24484 46.8439
4 7.32469 -1.24315 44.5812
4 51.5106 46.9805 4.82601
4 -1.14663 44.9458 7.08227
4 46.4239 46.0795 51.6513
4 44.3088 43.5952 51.7788
4 5.07535 51.3647 3.6924
4 7.448 51.1597 5.68342
2 2.36062 47.4525 50.7512
2 1.45034 46.1855 51.4068
2 48.0118 2.72004 -0.427008
2 48.6954 3.48793 51.4816
2 47.4838 -0.998116 48.2297
2 46.8929 50.2663 48.2936
2 51.1674 2.23248 48.1015
2 -0.433076 1.39841 47.266
2 2.6099 51.4615 2.46164
2 3.94865 51.3006 1.42034
2 50.4523 1.9716 3.48451
2 -0.694519 1.6862 3.0362
2 2.43468 2.7336 51.0015
2 2.36342 2.89124 -0.422671
2 -0.880987 49.6012 4.04892
2 -0.492113 48.6391 2.81282
2 47.4956 -1.04541 2.40243
2 46.3366 -0.510565 1.49455
2 48.9214 47.0045 51.7545
2 47.9145 48.3618 51.747
2 3.23786 -0.119267 48.1396
2 3.56836 51.442 49.1432
2 50.3865 47.7335 47.6218
2 -0.768142 48.1469 47.4365
1 50.2516 17.4363 20.4192
1 49.1977 16.6592 21.1344
1 49.0791 15.2791 20.9294
2 49.8495 14.7731 20.3198
1 48.0517 14.5586 21.5881
2 48.0571 13.4662 21.4423
1 47.1003 15.2352 22.4174
2 46.3777 14.6518 22.9457
1 47.2273 16.6246 22.649
1 48.2314 17.3075 21.9356
2 48.2944 18.3887 22.0357
1 46.2908 17.3861 23.5019
1 49.839 19.7498 17.3698
1 48.7353 20.2914 16.6463
1 48.1569 19.6381 15.539
2 48.5749 18.7119 15.2069
1 47.0755 20.2479 14.7997
2 46.6079 19.7083 14.0491
1 46.5031 21.4197 15.1649
2 45.6239 21.8055 14.6092
1 47.0515 22.1384 16.2938
1 48.2274 21.5794 16.9555
2 48.5411 22.0409 17.8677
1 46.3499 23.3248 16.8885
1 1.27373 19.593 17.9446
1 2.64444 20.0187 17.4945
1 3.30275 19.6184 16.3018
2 2.83464 18.8509 15.664
1 4.3216 20.3547 15.7551
2 4.74167 20.1434 14.7363
1 4.83828 21.4277 16.4203
2 5.63569 21.9879 16.0375
1 4.38776 21.8015 17.661
1 3.21743 21.1319 18.1445
2 2.856 21.4355 19.0471
1 4.92156 22.9754 18.3254
1 0.698739 17.5337 20.2878
1 1.67862 16.8605 21.1557
1 1.89688 15.5111 20.9712
2 1.49504 15.0488 20.0839
1 2.62408 14.7101 21.9138
2 2.74299 13.676 21.6906
1 3.1789 15.3434 23.0049
2 3.68481 14.6858 23.6883
1 3.19558 16.7412 23.1421
1 2.3548 17.4663 22.2244
2 2.25498 18.5233 22.3676
1 3.8775 17.4146 24.2299
1 43.3309 20.0671 26.976
1 42.5662 20.8769 27.9353
1 41.1812 20.842 27.9816
2 40.733 20.0778 27.4455
1 40.4351 21.6765 28.8492
2 39.3543 21.6241 28.8229
1 41.0537 22.5682 29.6829
2 40.4233 23.286 30.2227
1 42.4758 22.6254 29.6935
1 43.2248 21.7773 28.7791
2 44.3134 21.7104 28.8412
1 43.2098 23.5275 30.5562
1 44.0387 19.4604 22.8078
1 43.6062 19.9371 21.4612
1 42.4562 19.3903 20.8791
2 41.974 18.5284 21.2452
1 41.9649 19.9162 19.6907
2 41.1255 19.4326 19.1566
1 42.4475 21.1654 19.2285
2 41.916 21.7526 18.4845
1 43.5816 21.6736 19.837
1 44.2288 21.0481 20.8435
2 45.1643 21.4808 21.1844
1 44.1469 22.912 19.3022
1 46.2387 17.262 26.8451
1 46.9223 16.4834 27.8571
1 46.7623 15.0962 28.0541
2 46.282 14.5154 27.3447
1 47.5249 14.4765 29.054
2 47.2689 13.42 29.1771
1 48.451 15.2027 29.8669
2 49.0312 14.7548 30.6584
1 48.6244 16.5723 29.726
1 47.8148 17.2301 28.6933
2 47.9858 18.295 28.549
1 49.4878 17.3589 30.6151
1 43.9005 26.9922 19.7893
1 43.1001 28.0517 20.4595
1 41.673 28.1317 20.3502
2 41.1294 27.5709 19.5598
1 40.9547 28.9327 21.2773
2 39.8974 28.9607 21.235
1 41.6235 29.731 22.2527
2 41.0147 30.4209 22.8965
1 43.0593 29.7452 22.2924
1 43.7658 28.877 21.4255
2 44.8797 28.7921 21.6291
1 43.7723 30.5041 23.3449
1 46.2314 27.2453 17.3778
1 46.9725 28.3742 16.7195
1 46.6105 28.8147 15.4138
2 45.8833 28.2178 14.7711
1 47.3515 29.859 14.8401
2 47.1068 30.1349 13.8144
1 48.4722 30.4097 15.4464
2 49.0518 31.1979 14.9926
1 48.8031 29.9166 16.7501
1 48.0543 28.972 17.3848
2 48.306 28.6887 18.3908
1 49.9554 30.5212 17.4303
1 48.8035 19.3387 32.8686
1 47.5301 19.9073 33.4172
1 47.0156 19.4221 34.6502
2 47.5469 18.7038 35.2955
1 45.8399 20.0013 35.1769
2 45.3886 19.6044 36.1132
1 45.3328 21.1833 34.6224
2 44.5041 21.7782 35.0734
1 45.89 21.7419 33.5013
1 46.9236 21.0646 32.8654
2 47.3227 21.5596 31.9857
1 45.3003 22.9082 32.868
1 -0.10507 16.887 30.677
1 0.785781 16.077 29.787
1 0.612256 14.7022 29.6305
2 -0.11504 14.2062 30.2478
1 1.56436 13.9952 28.9072
2 1.59918 12.9202 28.9969
1 2.52031 14.7003 28.1432
2 3.26294 14.1581 27.6497
1 2.50878 16.0908 28.1032
1 1.61854 16.7649 28.9293
2 1.571 17.8418 28.8793
1 3.51675 16.8914 27.3478
1 6.42265 19.5114 24.0044
1 7.1802 20.3593 23.0819
1 8.54827 20.1769 22.8557
2 9.02821 19.2715 23.2257
1 9.31924 21.1322 22.2108
2 10.3632 20.952 22.1097
1 8.70565 22.3036 21.6874
2 9.27623 23.0466 21.1949
1 7.33694 22.4575 21.7482
1 6.55368 21.4572 22.3969
2 5.52373 21.61 22.6039
1 6.71567 23.6092 20.9798
3 50.334 18.6716 20.6268
3 50.9108 16.8366 19.4921
3 50.6289 20.545 17.9764
3 50.0836 18.4868 17.3637
3 0.873117 19.8419 19.1366
3 0.553699 18.8509 17.228
3 0.590518 18.8496 20.3152
3 -0.0383344 16.8255 19.5359
3 44.2463 20.5757 26.2919
3 43.1293 18.801 26.813
3 45.1727 19.8823 23.2832
3 43.387 18.5952 23.4833
3 46.4008 18.6505 23.5629
3 45.5097 16.7798 24.325
3 46.3244 18.508 26.7403
3 45.5383 16.7016 25.9661
3 45.1745 27.0161 19.8226
3 43.3157 26.1729 19.0519
3 46.262 27.166 18.6704
3 45.6141 26.3518 16.6653
3 47.0009 24.0813 17.702
3 45.072 23.3263 16.9504
3 44.7284 23.7431 20.0486
3 43.9833 23.1451 18.0433
3 49.2998 19.7931 31.7965
3 49.3763 18.4716 33.539
3 49.4829 18.637 30.557
3 50.1897 16.7275 31.5055
3 -0.131209 18.1669 30.536
3 -0.895496 16.329 31.5416
3 -0.796677 20.5147 32.72
3 -0.0571893 18.5921 33.608
3 3.3378 18.13 27.2207
3 4.49289 16.3251 26.7991
3 3.90792 18.6587 24.353
3 4.60578 16.6804 25.042
3 5.22382 19.7998 24.241
3 7.05224 18.6781 24.7037
3 5.89533 20.3094 27.3999
3 6.54347 18.2579 27.9495
3 46.2792 26.4313 32.8139
3 44.2053 27.0715 33.3976
3 44.5596 26.4215 29.9965
3 42.603 26.0863 31.0617
3 44.5343 23.5164 30.5409
3 42.5896 24.4883 31.1581
3 45.6133 23.1371 31.6543
3 44.4978 23.698 33.5019
3 -1.17988 21.7636 20.9124
3 47.2382 21.202 25.5376
3 47.6422 24.8775 20.8803
3 -0.913759 20.7974 29.7059
3 3.25043 21.322 26.5185
3 47.6093 25.3141 30.2006
4 -1.20254 19.9767 19.8129
4 -0.906591 17.5634 17.7723
4 45.7673 19.7706 25.2487
4 43.7199 17.5703 25.2134
4 46.1174 25.1298 19.3837
4 44.0296 25.1116 17.3624
4 51.3028 19.5428 31.1462
4 51.1079 17.4093 33.2584
4 4.34594 19.5336 26.1829
4 6.31872 17.3069 26.0917
4 45.7502 25.18 31.1526
4 43.3011 25.3782 32.8703
1 0.439458 33.0886 31.1607
1 1.45786 33.8247 30.3675
1 1.68935 35.2293 30.5545
2 1.09108 35.8098 31.3377
1 2.76843 35.874 29.9157
2 2.8693 37.0135 29.9785
1 3.62443 35.0818 29.0985
2 4.50752 35.5819 28.6686
1 3.28418 33.7383 28.7455
1 2.24039 33.1108 29.4508
2 2.07479 32.0614 29.2452
1 4.19857 32.9962 27.7966
1 0.335851 30.7583 33.6358
1 1.46664 30.1384 34.3335
1 1.74772 30.478 35.681
2 1.35969 31.3251 36.1815
1 2.78438 29.8336 36.3585
2 3.0136 30.2108 37.3716
1 3.51649 28.8467 35.7321
2 4.26721 28.3229 36.3036
1 3.22859 28.468 34.4187
1 2.26101 29.1594 33.7035
2 2.03171 28.9453 32.6733
1 3.93526 27.3304 33.7803
1 48.9984 30.822 33.3632
1 47.6764 30.2646 33.8561
1 46.9011 31.0971 34.688
2 47.2414 32.086 34.8425
1 45.7277 30.6373 35.1548
2 45.1382 31.3351 35.731
1 45.2706 29.3751 34.843
2 44.2389 29.1182 35.1124
1 46.0237 28.4969 34.0687
1 47.264 28.987 33.57
2 47.8638 28.2853 32.9865
1 45.4678 27.2097 33.4703
1 49.3447 33.017 30.9781
1 48.1646 33.5664 30.265
1 47.5661 34.7127 30.773
2 47.937 35.1911 31.6613
1 46.5622 35.3989 30.0264
2 46.1977 36.3248 30.4318
1 46.0324 34.7601 28.9171
2 45.2225 35.2871 28.4485
1 46.6163 33.5755 28.4119
1 47.7301 33.0603 29.0253
2 48.1672 32.1286 28.6955
1 46.0439 32.9898 27.2391
1 6.87852 30.1524 24.628
1 7.63377 29.136 23.8801
1 8.99604 28.8309 24.0171
2 9.57097 29.4025 24.7867
1 9.62931 27.9241 23.2155
2 10.7089 27.7243 23.2734
1 8.93572 27.1809 22.3036
2 9.37639 26.3901 21.7624
1 7.56466 27.4608 22.0957
1 6.91892 28.4135 22.8579
2 5.94418 28.7388 22.5885
1 6.87499 26.8245 20.9916
1 6.4852 30.5893 27.7485
1 7.147 29.7184 28.7465
1 8.54184 29.5546 28.7154
2 9.19661 30.0211 27.9962
1 9.10415 28.7207 29.6654
2 10.1811 28.573 29.6739
1 8.31607 27.8526 30.4718
2 8.83162 27.126 31.134
1 6.93247 27.9613 30.4609
1 6.34736 28.9507 29.6044
2 5.24438 28.9896 29.5489
1 6.13655 27.0806 31.3761
1 4.46899 33.0123 23.6855
1 3.8611 33.7054 22.5485
1 4.40572 34.8785 21.9607
2 5.30101 35.3525 22.3438
1 3.80347 35.4437 20.7639
2 4.18423 36.3267 20.2615
1 2.82752 34.7597 20.1021
2 2.45062 35.1583 19.2129
1 2.23681 33.5984 20.6319
1 2.7899 33.0583 21.9126
2 2.44179 32.1599 22.277
1 1.13017 32.92 19.8933
1 6.14226 23.0528 31.8156
1 6.79401 21.8503 31.2841
1 7.79638 21.1513 32.013
2 8.07949 21.5787 32.9762
1 8.44472 20.0546 31.4658
2 9.21275 19.5598 32.0275
1 8.0917 19.4919 30.2359
2 8.60363 18.5971 29.8088
1 7.05827 20.1194 29.5292
1 6.51033 21.3263 29.9882
2 5.68933 21.7371 29.4932
1 6.45722 19.5275 28.2532
1 3.30653 23.5337 33.6719
1 2.52767 22.5106 34.3553
1 3.02435 21.992 35.5626
2 3.88156 22.5348 36.079
1 2.53542 20.8579 36.1302
2 3.03301 20.5159 37.0114
1 1.44981 20.1784 35.5103
2 1.152 19.1636 35.7867
1 0.992391 20.6192 34.2327
1 1.57337 21.7595 33.6645
2 1.2454 22.1842 32.7147
1 -0.0263184 19.8742 33.5112
1 1.25674 30.6626 17.3917
1 2.35008 29.9483 16.7269
1 3.19453 30.5154 15.7699
2 2.94301 31.4636 15.4165
1 4.32991 29.912 15.2832
2 5.015 30.3621 14.523
1 4.78286 28.7506 15.9112
2 5.75359 28.2647 15.6903
1 3.99071 28.1064 16.8538
1 2.70215 28.6184 17.1483
2 2.18739 28.0959 17.9243
1 4.55269 27.0947 17.7235
1 50.0732 32.8186 19.7602
1 49.007 33.5853 20.4536
1 48.7234 34.9613 20.1378
2 49.4377 35.53 19.5996
1 47.6099 35.58 20.6802
2 47.4135 36.6427 20.3996
1 46.7594 34.9165 21.4934
2 45.9543 35.4862 21.8653
1 47.0102 33.5656 21.8253
1 48.1198 32.9221 21.2585
2 48.3856 31.8697 21.6383
1 46.1927 32.8154 22.8865
1 43.8002 29.9081 26.3842
1 42.9432 28.9892 27.1984
1 41.5794 28.9492 26.9597
2 41.0839 29.5461 26.2277
1 40.79 28.1331 27.7631
2 39.7294 28.1154 27.6006
1 41.3131 27.3532 28.818
2 40.6116 26.7171 29.3842
1 42.6799 27.4445 29.0872
1 43.4911 28.2309 28.2311
2 44.5188 28.3653 28.4879
1 43.313 26.7168 30.1698
3 0.360541 31.8029 31.2331
3 -0.405761 33.773 31.8317
3 0.275437 30.6901 32.3499
3 -0.502105 31.4241 34.2883
3 49.8548 30.0659 32.7235
3 49.2004 32.0832 33.3791
3 50.0426 32.0621 30.441
3 49.3568 33.2022 32.278
3 5.62142 29.9933 24.6889
3 7.45618 31.0347 25.3319
3 5.25048 30.4045 27.6067
3 7.17715 31.4074 26.9983
3 4.13258 31.7238 27.7409
3 5.05767 33.6551 27.0501
3 3.67018 32.4891 24.5148
3 5.71478 33.0203 23.8609
3 5.57912 23.8471 31.0222
3 6.08591 23.2913 33.0302
3 2.75822 24.2327 32.6787
3 4.56007 23.6875 33.941
3 3.8263 27.1812 32.5106
3 4.64743 26.5096 34.5167
3 4.85928 27.0258 31.3701
3 6.74674 26.2567 32.1248
3 0.386811 29.9589 18.0018
3 1.10695 31.9502 17.3259
3 0.296303 32.1545 20.4558
3 1.0654 33.0973 18.6311
3 50.0434 31.5202 19.7915
3 50.9228 33.4754 19.1059
3 50.0458 30.4216 18.7071
3 50.8215 31.2463 16.7921
3 46.3336 31.5643 23.1516
3 45.4279 33.4833 23.6676
3 46.7958 32.4502 26.3614
3 44.7773 33.0118 27.0728
3 45.0647 29.7342 26.2775
3 43.3061 30.9751 25.8785
3 45.0578 30.4506 23.4125
3 43.1031 31.2855 24.1376
3 4.45721 23.327 19.487
3 5.77543 23.705 17.7449
3 5.41492 23.6447 20.8375
3 7.45681 24.3904 20.2928
3 5.60698 26.8043 20.9207
3 7.54238 26.085 20.2155
3 3.85017 26.1969 18.1926
3 5.77626 27.1093 17.973
3 51.2148 29.1739 30.0803
3 2.37828 29.8017 25.5674
3 2.98641 24.9797 29.6601
3 -0.66273 29.0942 20.9058
3 47.8401 29.6543 25.2772
3 2.62844 25.7754 21.1786
4 51.2428 30.7051 31.3875
4 51.1389 32.9862 33.3593
4 4.13304 30.9731 25.8121
4 6.50381 32.9155 25.7036
4 4.01237 25.2194 31.3959
4 6.07574 25.19 33.7308
4 -0.852929 30.6363 19.5604
4 -0.791342 32.8611 17.5222
4 46.195 30.9198 25.1247
4 44.0124 32.9205 25.1919
4 4.35613 25.3733 20.0642
4 6.83531 25.356 18.3615
2 2.13678 28.9839 26.0795
2 1.8195 29.9766 24.813
2 47.7541 21.0611 26.3113
2 47.2879 22.0691 25.0911
2 47.8607 25.7502 29.3668
2 48.1836 24.5788 30.3961
2 -0.763992 20.501 28.7908
2 -0.767244 21.6552 30.068
2 2.3143 25.2339 21.9047
2 2.36078 26.6978 21.0992
2 -0.862079 21.8282 21.7703
2 -1.18269 22.5899 20.4576
2 3.50858 21.8283 27.275
2 2.38951 21.5962 26.1859
2 -0.770067 29.1792 21.8938
2 -0.295093 28.3112 20.5546
2 47.6627 24.1272 21.4553
2 48.5537 25.2306 20.7068
2 48.5787 29.9207 24.6829
2 47.9432 29.077 26.097
2 2.69702 24.0375 29.4577
2 3.24506 25.6335 29.0381
2 -0.972228 28.464 30.1811
2 50.5788 29.1931 29.3872
1 32.9337 49.7319 19.3802
1 33.5428 48.5167 19.9236
1 34.3234 47.5989 19.1842
2 34.5343 47.8101 18.1687
1 34.6931 46.3368 19.735
2 35.2654 45.6288 19.1501
1 34.3993 46.07 21.0648
2 34.7603 45.1365 21.4772
1 33.6214 46.98 21.8486
1 33.2282 48.1734 21.2499
2 32.7327 48.919 21.845
1 33.272 46.5888 23.2227
1 30.5856 49.0027 17.3612
1 30.0818 47.6684 16.925
1 30.7656 46.8062 16.1099
2 31.6835 47.1629 15.6451
1 30.2483 45.5962 15.7079
2 30.7883 44.9296 15.0214
1 28.8972 45.2085 16.0918
2 28.5233 44.256 15.8721
1 28.2404 46.0572 16.9769
1 28.8071 47.2499 17.3865
2 28.3214 47.7269 18.2377
1 26.9872 45.6234 17.65
1 29.9932 0.639006 17.0453
1 29.0121 1.6301 16.4454
1 29.0918 1.97234 15.0779
2 29.6777 1.42858 14.3446
1 28.4486 3.13238 14.6146
2 28.5633 3.39487 13.5742
1 27.6963 3.97449 15.5758
2 27.3012 4.94937 15.2088
1 27.4959 3.49565 16.8759
1 28.0797 2.26691 17.2839
2 27.8003 1.90796 18.3202
1 26.6596 4.21885 17.821
1 33.1625 0.156099 19.5216
1 34.0228 1.17843 20.2344
1 35.3153 1.44431 19.7646
2 35.743 0.862138 18.9275
1 36.1351 2.42536 20.3064
2 37.1747 2.54297 19.9752
1 35.5876 3.21619 21.3237
2 36.2384 4.09159 21.6304
1 34.3072 3.00316 21.8474
1 33.5487 1.90277 21.3757
2 32.5475 1.66452 21.766
1 33.7719 3.8355 22.917
1 30.9118 43.8704 26.7154
1 30.1227 42.9745 27.6365
1 30.5613 41.7243 27.9228
2 31.4613 41.3244 27.6021
1 29.8843 40.9345 28.8988
2 30.2535 39.9291 29.0445
1 28.6694 41.3333 29.4487
2 28.1959 40.648 30.1491
1 28.2958 42.6815 29.2351
1 29.0275 43.5382 28.3534
2 28.7164 44.5642 28.0393
1 27.1219 43.2788 29.9925
1 31.2412 44.3181 23.5729
1 30.5987 43.548 22.4203
1 31.2642 42.4701 21.7656
2 32.2404 42.0936 22.0547
1 30.6564 41.8165 20.7054
2 31.2273 41.0147 20.3178
1 29.3994 42.257 20.2683
2 28.8695 41.6633 19.4859
1 28.7046 43.3271 20.8485
1 29.3053 43.9741 21.9614
2 28.7593 44.7738 22.4786
1 27.3786 43.7687 20.3142
1 33.6268 47.0149 27.378
1 34.21 47.9378 28.3458
1 35.589 47.8826 28.6635
2 36.3325 47.2421 28.1398
1 36.1224 48.6384 29.7566
2 37.1778 48.4867 30.0575
1 35.3339 49.4829 30.5278
2 35.6076 49.9847 31.4087
1 33.9511 49.5552 30.202
1 33.3984 48.7991 29.1552
2 32.306 48.8322 28.9787
1 32.9817 50.2653 31.0327
1 23.2498 43.2609 20.5233
1 22.051 42.7489 21.1995
1 21.4328 41.5633 20.6968
2 21.8915 40.8977 19.9803
1 20.1163 41.3107 20.9724
2 19.5103 40.5965 20.4217
1 19.4744 42.0407 21.9352
2 18.4402 41.8879 22.1206
1 20.0801 43.1802 22.5501
1 21.3731 43.5382 22.1489
2 21.8666 44.5116 22.4789
1 19.4116 43.9847 23.6142
1 23.79 46.0208 17.3506
1 22.9272 46.7505 16.4366
1 22.4731 46.1849 15.2657
2 22.8881 45.2576 14.9045
1 21.3931 46.7314 14.5447
2 21.0534 46.2537 13.6225
1 20.7927 47.9342 15.057
2 19.9354 48.3411 14.5745
1 21.2508 48.5328 16.247
1 22.36 47.9912 16.8598
2 22.7416 48.3917 17.7878
1 20.5059 49.6438 16.922
1 29.806 49.7132 33.6426
1 29.0419 48.6282 34.2563
1 29.3904 48.0843 35.4746
2 30.0866 48.5765 36.1415
1 28.7414 46.9862 36.0031
2 28.9202 46.691 37.0418
1 27.8256 46.3143 35.213
2 27.217 45.5118 35.693
1 27.4736 46.7466 33.9179
1 28.072 47.9669 33.4736
2 27.8846 48.296 32.4447
1 26.4982 46.016 33.0466
1 32.702 0.577964 31.1424
1 33.4731 1.61729 30.4222
1 34.8028 1.96585 30.8295
2 35.1426 1.49843 31.7809
1 35.5665 2.82813 30.0893
2 36.6577 3.02751 30.3396
1 35.0974 3.41276 28.9176
2 35.7475 3.96304 28.2542
1 33.7894 3.04459 28.4802
1 32.9565 2.21528 29.2588
2 31.915 2.03342 28.9414
1 33.3123 3.68874 27.2288
1 31.0291 6.54212 23.6881
1 30.0474 7.41858 23.0083
1 30.0758 8.83956 23.1828
2 30.8389 9.42673 23.704
1 29.0895 9.60345 22.5723
2 29.1071 10.6796 22.6216
1 28.0277 8.9737 21.8619
2 27.132 9.61767 21.5926
1 28.019 7.57679 21.6177
1 29.0219 6.84043 22.2182
2 29.0031 5.78434 22.05
1 26.9424 6.94815 20.8219
3 32.1257 50.4896 20.0617
3 32.984 49.8911 18.1211
3 29.8471 49.7576 18.0651
3 31.7286 49.3906 16.9992
3 30.0747 0.595885 18.3069
3 30.6073 -0.255211 16.3596
3 32.2879 -0.575122 20.1438
3 33.2865 0.0552127 18.2361
3 30.3061 44.8356 26.0729
3 32.1678 43.7861 26.7146
3 30.5052 44.914 24.4303
3 32.51 44.2005 23.7863
3 32.3427 47.2867 23.7794
3 33.7137 45.499 23.7384
3 32.3328 46.9524 27.2805
3 34.3839 46.2951 26.6767
3 23.5661 44.4878 20.6157
3 23.931 42.5474 19.7756
3 24.476 46.6845 18.2208
3 23.8666 44.7838 17.3407
3 26.2587 46.4288 18.3332
3 26.8365 44.3343 17.777
3 26.7649 44.6864 20.9375
3 26.9623 43.3003 19.2045
3 29.2114 50.4822 32.8191
3 30.9694 49.9426 33.9542
3 31.7694 50.4045 30.6024
3 33.3309 50.8332 32.1369
3 31.4732 0.454134 30.9169
3 33.2507 -0.141286 32.0637
3 30.2503 0.83106 31.9265
3 31.1206 0.694647 33.939
3 32.0568 3.81816 27.0839
3 34.066 4.26175 26.4387
3 33.0471 3.25903 23.7858
3 34.0603 5.0706 23.0116
3 30.7209 5.34044 23.9146
3 31.9388 7.01309 24.3791
3 31.1185 5.13672 26.7855
3 32.1787 6.92594 26.0153
3 23.9693 46.3131 31.98
3 23.4142 44.3557 32.8395
3 23.4578 44.6629 29.7793
3 23.2891 43.2561 31.4557
3 26.8602 44.5059 29.823
3 26.4394 42.6313 30.879
3 25.8023 46.6093 32.1189
3 26.3731 44.7729 33.2687
3 28.9026 -1.04417 20.611
3 30.0268 47.9622 26.0303
3 24.8858 47.2689 21.5324
3 28.9327 51.1233 29.6452
3 30.2343 2.11109 25.0928
3 25.4278 47.021 28.85
4 30.3958 51.5205 19.2259
4 32.3057 51.4727 16.8878
4 31.3833 46.4871 25.4937
4 33.7462 44.5632 25.5685
4 25.1224 45.791 20.0769
4 25.0083 43.3558 18.321
4 30.3106 -1.15831 31.2974
4 32.2847 -1.16001 33.6893
4 31.5137 3.80333 25.1266
4 33.7087 5.85639 24.9463
4 25.1734 45.6453 30.2982
4 25.2296 43.3719 32.4251
1 17.4297 0.267608 31.2128
1 16.4897 1.16849 30.5166
1 15.1008 0.946897 30.6656
2 14.7033 0.181535 31.3372
1 14.262 1.67063 29.7691
2 13.2106 1.43469 29.8379
1 14.7796 2.52554 28.7171
2 13.9962 2.97262 28.0362
1 16.1326 2.73062 28.5466
1 17.0424 2.06786 29.5067
2 18.1384 2.25014 29.3427
1 16.7661 3.41626 27.3793
1 21.0276 0.67383 33.6173
1 21.8251 1.77976 34.169
1 21.6364 2.30487 35.4462
2 20.9326 1.84449 36.1022
1 22.3432 3.44837 35.8653
2 22.1406 3.84958 36.8335
1 23.1912 4.07725 34.996
2 23.8847 4.79371 35.4869
1 23.2803 3.65358 33.66
1 22.6658 2.4763 33.2914
2 22.7681 2.02358 32.2785
1 24.1615 4.41508 32.7158
1 20.1819 49.4378 33.3886
1 20.592 48.0461 33.7441
1 19.8996 47.2939 34.704
2 19.0599 47.7153 35.2259
1 20.3491 46.0696 35.1381
2 19.9394 45.6027 35.9416
1 21.4632 45.4827 34.5204
2 21.7013 44.4521 34.7238
1 22.1941 46.2338 33.5194
1 21.8177 47.5389 33.1988
2 22.4006 48.174 32.5032
1 23.222 45.6016 32.7442
1 18.0068 49.7284 31.354
1 17.2914 48.5798 30.7389
1 16.2816 47.9053 31.4418
2 15.8853 48.2964 32.3845
1 15.7132 46.7809 30.9057
2 15.0335 46.1612 31.5481
1 16.042 46.2602 29.6577
2 15.5777 45.3011 29.3654
1 17.0082 46.903 28.9365
1 17.6505 48.0711 29.4886
2 18.404 48.6189 28.9799
1 17.3657 46.4468 27.5749
1 18.9857 5.70355 23.3238
1 19.5397 6.24478 22.087
1 18.6515 6.66187 21.056
2 17.5451 6.71509 21.1791
1 19.1513 7.2589 19.8364
2 18.4688 7.83011 19.151
1 20.4995 7.18697 19.6152
2 20.9247 7.54742 18.7221
1 21.3635 6.64707 20.5613
1 20.8838 6.1852 21.7911
2 21.5217 5.56207 22.3794
1 22.7468 6.36237 20.1892
1 19.4746 6.29734 26.4447