2544
 Atoms. Timestep: 0
1 44.6254 8.72506 14.4848
1 43.1845 9.13434 14.6808
1 42.7119 9.68267 15.8551
2 43.3318 9.8592 16.7129
1 41.3497 9.94482 16.0635
2 40.9521 10.3504 17.0523
1 40.4332 9.71803 14.9935
2 39.4118 9.97263 15.0624
1 40.8445 9.15564 13.8096
1 42.2955 9.00747 13.6287
2 42.6067 8.67533 12.6194
1 39.8912 8.82992 12.7012
1 6.72085 5.91187 14.7471
1 6.02921 43.8396 15.1336
1 5.89994 43.5329 16.469
2 6.16329 44.2866 17.2163
1 44.5785 42.2839 16.8191
2 44.4572 42.1447 17.8742
1 44.1925 41.2908 15.9118
2 43.7801 40.346 16.3025
1 44.4156 41.6175 14.5011
1 5.70864 42.8797 14.1463
2 5.89169 43.0895 13.0798
1 43.8934 40.708 13.4225
1 10.3909 7.88452 13.8017
1 11.8383 7.88389 13.3962
1 12.8897 7.81977 14.4241
2 12.5998 7.73872 15.4361
1 14.2367 8.00968 14.0538
2 15.0281 7.95549 14.831
1 14.5494 8.30345 12.7308
2 15.6115 8.39054 12.5116
1 13.5208 8.36597 11.7008
1 12.1639 8.05788 12.0743
2 11.4439 7.81092 11.3796
1 13.9705 8.40396 10.3387
1 7.58752 10.7183 13.2458
1 7.3561 12.1447 12.9159
1 7.08144 13.1025 13.915
2 7.06133 12.9032 14.9566
1 6.86511 14.431 13.541
2 6.85393 15.1929 14.303
1 6.92985 14.8334 12.2299
2 6.87924 15.8614 12.0174
1 7.1941 13.8701 11.2208
1 7.37074 12.5427 11.5487
2 7.56024 11.8507 10.7663
1 7.46829 14.4018 9.84119
1 36.6423 6.66129 9.39373
1 35.7554 5.78709 8.53338
1 34.5999 44.3004 9.09957
2 34.3148 44.4698 10.1093
1 33.9173 43.31 8.36278
2 33.1906 42.7402 8.87663
1 34.2937 43.0584 7.0647
2 33.7031 42.3791 6.45074
1 35.4135 43.6772 6.48983
1 36.1219 44.6325 7.26212
2 37.0274 5.93574 6.7736
1 35.8183 43.4362 44.544
1 38.5821 6.05636 11.8694
1 38.6076 43.9213 12.5599
1 37.6492 43.5336 13.5308
2 36.8886 44.2378 13.9563
1 37.8991 42.3148 14.2187
2 37.2419 42.0712 15.0779
1 38.8505 41.3879 13.6985
2 38.9409 40.4798 14.1458
1 39.7462 41.7217 12.6901
1 39.6082 43.0265 12.0981
2 40.2773 43.4527 11.3662
1 40.8168 40.7844 12.3044
1 38.112 10.5602 9.296
1 37.8622 11.7191 8.44502
1 36.8773 12.6794 8.83123
2 36.5435 12.6985 9.81888
1 36.4936 13.6188 7.91649
2 35.6865 14.3465 8.16588
1 36.9826 13.6113 6.59933
2 36.5597 14.2927 5.85392
1 37.9723 12.7068 6.23145
1 38.4736 11.7934 7.17053
2 39.1415 11.0647 6.86271
1 38.5295 12.653 44.3463
1 42.0126 37.5903 9.69779
1 41.7457 36.7773 8.46656
1 41.0019 35.6328 8.58205
2 40.5507 35.3001 9.5546
1 40.6396 34.8581 7.46888
2 40.1001 33.9847 7.58565
1 41.1459 35.2487 6.19637
2 40.9738 34.5464 44.8224
1 41.9545 36.413 6.0735
1 42.1742 37.1939 7.21473
2 42.7979 38.0576 7.16633
1 42.6807 36.5933 44.2895
1 6.14245 38.2417 11.8918
1 7.60444 37.9363 12.0251
1 8.04831 37.2454 13.1129
2 7.36612 37.1628 13.9958
1 9.38015 36.8201 13.1785
2 9.73578 36.4354 14.0911
1 10.2852 37.1819 12.173
2 11.3394 36.7829 12.1202
1 9.7993 37.7619 10.9835
1 8.48374 38.2497 10.9653
2 8.11122 38.7636 10.0491
1 10.6302 37.9271 9.74787
1 37.8113 10.8809 40.5719
1 36.8627 9.83389 40.0441
1 35.774 10.1181 39.1643
2 35.8121 11.0384 38.5809
1 34.773 9.13585 38.9976
2 33.9124 9.41298 38.392
1 34.9091 7.90191 39.5269
2 34.1338 7.16787 39.3745
1 36.0328 7.57766 40.2437
1 37.0195 8.51835 40.5065
2 37.8533 8.13218 41.1783
1 36.2013 6.22562 40.746
1 40.7565 14.4835 43.0524
1 41.6446 15.5636 43.6426
1 41.3421 16.9607 43.4298
2 40.3846 17.3333 43.0134
1 42.2452 17.9286 43.8438
2 42.1422 18.9403 43.5666
1 43.4869 17.5955 44.3863
2 44.1215 18.4347 44.7001
1 43.7745 16.2682 44.7408
1 42.8385 15.2597 44.4219
2 43.0059 14.2354 44.625
1 5.77529 15.9057 6.039
1 10.5311 14.5791 7.37815
1 11.9703 14.243 7.26948
1 13.0036 15.2439 7.22236
2 12.7207 16.3456 7.23955
1 14.3341 14.9381 7.22522
2 15.095 15.7277 7.1201
1 14.7013 13.5784 7.301
2 15.7478 13.3332 7.33972
1 13.7722 12.5698 7.25519
1 12.3998 12.8756 7.30751
2 11.671 12.0634 7.32937
1 14.1407 11.1612 7.40998
3 5.74454 7.90465 13.5515
3 6.3468 9.3452 15.1717
3 6.41563 6.44691 13.6342
3 7.46648 6.50119 15.5344
3 9.54597 7.51153 12.9347
3 10.0458 8.47189 14.8871
3 7.68844 9.87816 12.2771
3 7.64292 10.2748 14.462
3 37.6441 7.17787 8.89138
3 36.3467 6.9208 10.6031
3 39.54 6.63271 11.2789
3 37.4377 6.58384 11.8286
3 40.3173 8.36961 11.6321
3 38.6685 8.99793 12.8965
3 39.2383 9.9947 9.21915
3 37.186 10.1108 10.0448
3 41.6221 38.7948 9.7604
3 42.4815 37.1488 10.7479
3 5.7265 38.9185 10.9154
3 44.5653 38.0559 12.8771
3 43.418 41.1545 12.337
3 43.8278 39.4523 13.6381
3 41.8411 41.2208 11.6408
3 40.9113 39.5955 12.8448
3 38.6315 10.4987 41.4601
3 37.7436 12.0166 40.1284
3 39.6958 12.2759 44.1055
3 37.8355 13.1553 43.4032
3 40.8249 13.2536 43.4615
3 40.0157 14.7597 42.0336
3 41.3749 12.4533 40.7132
3 40.0971 14.2085 40.3686
3 5.85497 14.6835 6.3856
3 6.69242 16.711 6.27291
3 7.73317 13.5453 8.95382
3 7.33475 15.6401 9.59443
3 9.73754 13.6759 6.87702
3 10.0425 15.684 7.85834
3 8.86167 14.2541 44.8856
3 8.40281 16.5007 5.72162
3 37.9655 43.5932 40.2647
3 36.2642 42.1924 39.8423
3 38.249 41.5453 42.2658
3 36.3128 40.9534 41.4196
3 36.7813 44.1068 44.0651
3 35.0894 42.7649 43.7596
3 37.4256 5.83941 40.926
3 35.1301 44.6257 41.0209
3 7.59058 7.29212 10.4933
3 40.8141 7.55508 8.27885
3 43.4177 40.9277 8.79134
3 41.4419 9.84778 42.6303
3 6.84665 11.7689 6.33194
3 40.054 43.7117 42.7979
4 7.55982 7.83553 12.4616
4 8.20417 8.46348 15.6289
4 39.4229 8.01901 9.68028
4 37.0392 8.65643 11.5603
4 43.1034 39.9801 10.588
4 42.4338 38.1184 12.6336
4 40.3007 11.4846 42.3046
4 38.3021 13.6276 41.4491
4 7.5794 13.6773 6.84697
4 8.21116 16.5793 7.88883
4 38.005 43.5811 42.3804
4 34.9332 42.5715 41.5604
1 6.647 43.1381 35.6691
1 7.94419 42.4961 35.4888
1 8.29897 41.7601 34.3971
2 7.58418 41.5762 33.6145
1 9.6028 41.1176 34.2927
2 9.87009 40.5121 33.4568
1 10.5302 41.2774 35.2857
2 11.482 40.8115 35.2326
1 10.1894 42.0644 36.4153
1 8.92994 42.6875 36.4983
2 8.5968 43.1026 37.5207
1 11.2226 42.3488 37.4647
1 43.9968 7.18928 34.5318
1 44.4719 8.52256 34.2827
1 44.1264 9.17733 33.0645
2 43.5765 8.68604 32.2966
1 44.5598 10.4619 32.8033
2 44.2441 10.9177 31.9152
1 6.08127 11.1894 33.7946
2 6.24997 12.2589 33.5738
1 6.44531 10.5508 34.9739
1 6.0524 9.21699 35.252
2 6.32603 8.7412 36.1822
1 7.2667 11.2949 35.9688
1 40.8779 43.4451 35.9705
1 39.4858 43.0881 36.351
1 38.5726 42.5944 35.3919
2 39.0148 42.3305 34.4767
1 37.3346 42.0987 35.7449
2 36.7971 41.4394 35.0969
1 36.8751 42.2638 37.0885
2 35.969 41.7214 37.3283
1 37.6971 42.905 38.0584
1 38.9858 43.2904 37.6663
2 39.6348 43.9146 38.3225
1 37.2797 42.9249 39.4781
1 43.3972 41.3698 36.1056
1 43.3599 39.9354 36.4219
1 43.3332 39.0067 35.4055
2 43.005 39.32 34.4911
1 43.3683 37.6347 35.7134
2 43.3079 36.9127 34.839
1 43.49 37.1544 37.0198
2 43.5745 36.0904 37.2017
1 43.5264 38.0821 38.1068
1 43.3477 39.4643 37.8044
2 43.3621 40.197 38.5499
1 43.7332 37.5388 39.4681
1 14.6823 44.2179 40.8699
1 15.6536 5.56759 41.8815
1 16.956 44.369 41.9243
2 17.4076 43.7142 41.193
1 17.8314 5.55499 43.0351
2 18.7864 44.2687 43.1306
1 17.3066 6.30495 44.0702
2 17.8893 6.64458 44.916
1 15.9506 6.70066 44.0298
1 15.1758 6.37358 42.904
2 14.1458 6.59042 42.8979
1 15.4036 7.54575 5.67155
1 13.6006 6.34116 38.3079
1 13.6143 7.79842 37.8863
1 14.6979 8.3148 37.1851
2 15.5388 7.69548 36.855
1 14.6517 9.69304 36.7961
2 15.5515 10.1052 36.3727
1 13.4748 10.4364 37.071
2 13.5401 11.3845 36.6763
1 12.3442 9.88431 37.6567
1 12.4725 8.55195 38.0873
2 11.5896 8.09829 38.4105
1 11.0448 10.6566 37.817
1 14.1456 41.0577 40.6036
1 14.6754 40.1799 41.648
1 16.0336 39.8946 41.654
2 16.7146 40.1265 40.8215
1 16.5845 39.2053 42.7202
2 17.6113 38.9953 42.7808
1 15.8509 38.8951 43.8235
2 16.345 38.4519 44.6593
1 14.4319 39.1826 43.8159
1 13.8373 39.8411 42.7318
2 12.7351 40.0394 42.6596
1 13.5432 38.8354 45.0217
1 9.57049 14.1162 39.6918
1 9.74503 15.1257 40.7972
1 10.1723 16.4047 40.4999
2 10.5056 16.5536 39.4905
1 10.1766 17.405 41.5171
2 10.2467 18.4468 41.211
1 9.70277 17.0805 42.7539
2 9.80472 17.864 43.549
1 9.3175 15.747 43.0557
1 9.30739 14.8 42.1261
2 9.00022 13.8414 42.4678
1 8.79054 15.4604 44.4337
1 6.5845 13.4588 38.1339
1 44.4297 14.1206 38.2006
1 44.2262 15.383 37.6946
2 5.81175 15.9427 37.1425
1 42.9829 16.069 37.9574
2 42.8053 17.0675 37.5909
1 41.9912 15.3751 38.6156
2 41.024 15.8898 38.8557
1 42.1928 14.1394 39.2189
1 43.4558 13.5396 39.0076
2 43.623 12.6544 39.604
1 41.1468 13.5364 40.0601
1 13.7377 40.465 8.28267
1 14.7619 41.5758 8.56138
1 16.0389 41.2855 9.02315
2 16.3084 40.2507 9.12571
1 16.9234 42.2823 9.32168
2 17.914 42.0632 9.70849
1 16.5836 43.6338 9.1454
2 17.3462 44.3547 9.48408
1 15.3181 43.983 8.59873
1 14.3913 42.9019 8.39173
2 13.3588 43.1918 8.09745
1 15.0451 6.25089 8.41932
1 11.1598 36.875 5.77244
1 10.4254 35.8751 44.3652
1 10.9609 34.6319 44.0366
2 11.888 34.2815 44.4579
1 10.1736 33.6914 43.3909
2 10.5711 32.7151 43.3556
1 8.86955 34.0254 42.8965
2 8.33534 33.1831 42.4
1 8.36547 35.2887 43.1114
1 9.14596 36.2104 43.8948
2 8.75117 37.1648 44.1681
1 7.00131 35.6263 42.6367
1 41.2845 37.2777 41.5819
1 39.8506 37.6498 41.534
1 38.9154 36.6532 41.3326
2 39.2403 35.6318 41.2066
1 37.5306 36.9161 41.2873
2 36.8118 36.129 41.2212
1 37.1078 38.1912 41.4062
2 36.0746 38.3295 41.4557
1 37.9815 39.2601 41.7007
1 39.3744 38.9537 41.7481
2 40.08 39.7282 42.0632
1 37.4622 40.6343 41.9056
3 6.35857 43.8038 36.708
3 5.77755 42.9144 34.7381
3 43.7443 6.91336 35.7665
3 43.8617 6.34633 33.6167
3 41.8039 43.3804 36.8376
3 41.1353 43.7317 34.7532
3 42.9938 42.2942 36.9101
3 43.7164 41.697 34.9162
3 13.4927 44.6991 40.737
3 15.073 43.3406 40.0712
3 12.8005 5.96948 39.2436
3 14.2423 44.668 37.6955
3 10.9369 43.2203 38.3115
3 12.4205 41.9688 37.3798
3 12.9162 41.2613 40.5368
3 14.9625 41.8054 39.9321
3 9.34946 12.9288 39.973
3 9.34581 14.5377 38.5277
3 6.65875 12.1961 38.3079
3 7.58596 14.0868 37.6408
3 7.27121 10.9202 37.2291
3 8.05693 12.2373 35.6313
3 9.99663 10.0399 38.2577
3 11.0677 11.8739 37.5218
3 12.5118 40.8025 7.98791
3 14.1378 39.2205 8.20136
3 12.2907 39.0789 44.9287
3 14.0361 38.4373 6.67536
3 10.9343 38.1165 5.65678
3 11.8706 36.4323 6.71401
3 10.0881 38.1892 8.61672
3 11.8487 37.8329 9.7637
3 6.73348 36.871 42.3606
3 6.06412 34.8056 42.4291
3 43.4974 38.3583 40.3751
3 43.9418 36.3037 39.6172
3 42.1721 38.1541 41.488
3 41.6422 36.1209 41.9198
3 43.2925 37.6716 44.1234
3 42.6773 35.6675 43.3875
3 13.0768 8.70025 9.43785
3 15.2005 8.34548 10.0166
3 13.6417 10.278 6.64931
3 14.95 10.8187 8.36759
3 14.2203 7.19037 6.08268
3 16.1495 8.40177 6.25563
3 14.0428 6.60975 7.7173
3 15.874 7.11822 8.88305
3 43.4923 6.10837 38.6801
3 10.5799 43.4906 41.3634
3 7.67828 10.2822 40.6461
3 9.5665 41.0583 6.93263
3 6.12093 39.8956 42.1866
3 11.2379 8.25605 6.96568
4 43.6567 44.3916 36.8833
4 43.017 43.5618 33.9434
4 12.0864 43.2643 39.9776
4 14.251 42.6703 38.227
4 8.4964 11.3057 39.0272
4 9.50277 13.2037 36.8626
4 11.0449 39.5357 7.2265
4 12.9943 37.4188 8.216
4 44.2379 38.0513 42.2513
4 43.5299 35.1945 41.4169
4 13.1802 8.49627 7.43182
4 16.0201 9.10392 8.17885
2 10.0207 42.8469 41.6951
2 10.702 44.2959 41.8957
2 41.6909 7.9231 8.30551
2 40.4376 7.25004 7.45013
2 40.5665 42.9881 43.1751
2 40.5585 44.5292 42.6325
2 41.7895 9.48796 41.7762
2 41.2952 9.4512 43.4827
2 10.9155 7.58512 6.27802
2 10.6359 8.49517 7.65417
2 7.32238 6.41019 10.2562
2 7.37745 8.01873 9.83741
2 6.8524 11.4745 44.8271
2 6.45536 11.1827 7.04156
2 9.32022 41.4191 7.80245
2 9.32248 41.4371 6.1114
2 43.5802 41.873 8.65267
2 43.2848 40.3769 8.03794
2 6.9581 40.2217 42.6386
2 5.74826 40.5506 41.5738
2 6.75233 10.5079 40.9524
2 8.2283 9.67191 41.1958
2 42.7226 6.60984 38.9806
2 44.2014 5.87845 39.3153
1 9.71412 17.0683 24.6477
1 8.59621 16.1189 25.038
1 8.52959 14.8514 24.4947
2 9.29983 14.3931 23.9043
1 7.37989 14.0005 24.7293
2 7.3352 12.9982 24.2808
1 6.32465 14.4395 25.464
2 44.5468 13.9558 25.4852
1 6.35231 15.7301 26.0664
1 7.49763 16.5594 25.8546
2 7.54602 17.5822 26.2343
1 44.3969 16.1781 26.8634
1 9.76757 18.2115 21.4986
1 8.76642 17.7985 20.511
1 8.80419 16.6163 19.7638
2 9.60236 15.8696 19.8414
1 7.69091 16.2317 18.9826
2 7.76453 15.2989 18.413
1 6.54286 17.1157 18.8549
2 5.71902 16.7904 18.2436
1 6.53208 18.3276 19.5629
1 7.67998 18.7213 20.3091
2 7.69042 19.7083 20.7859
1 44.5764 19.2127 19.457
1 13.0175 20.4304 22.4852
1 13.9569 21.4586 21.9798
1 14.7392 21.2405 20.8405
2 14.7161 20.2957 20.3351
1 15.695 22.1517 20.3568
2 16.3313 21.8181 19.506
1 15.8095 23.4 21.0836
2 16.4794 24.1298 20.6875
1 14.9089 23.7249 22.0804
1 14.0003 22.7424 22.5383
2 13.2818 23.0203 23.3603
1 14.9949 25.0286 22.801
1 12.2983 18.3031 26.0502
1 12.8227 18.1239 27.4645
1 13.7901 17.1567 27.8091
2 14.1492 16.489 27.0777
1 14.4061 17.1872 29.071
2 15.1306 16.3811 29.3006
1 13.9014 18.0939 30.0721
2 14.2841 18.1647 31.0785
1 12.9832 19.1112 29.703
1 12.3531 19.086 28.4371
2 11.646 19.8353 28.1609
1 12.7806 20.3228 30.6302
1 39.7367 17.822 27.9929
1 38.3427 18.1774 27.9014
1 37.3505 17.2187 28.2364
2 37.6327 16.2596 28.5698
1 36.0375 17.6676 28.4289
2 35.3741 16.9181 28.8562
1 35.6868 18.988 28.2062
2 34.6518 19.255 28.3704
1 36.6232 19.9324 27.7857
1 37.999 19.5249 27.7168
2 38.7781 20.2771 27.4898
1 36.3357 21.3909 27.7972
1 41.6793 16.6617 25.6878
1 41.3086 16.5163 24.2664
1 40.859 15.2994 23.7387
2 40.7718 14.3752 24.3885
1 40.9648 15.0534 22.3372
2 40.6636 14.0365 22.0396
1 41.2326 16.0793 21.4503
2 41.0466 15.9301 20.4182
1 41.5276 17.3371 21.9388
1 41.5842 17.5549 23.3373
2 41.9386 18.5681 23.6696
1 41.7839 18.4557 21.0345
1 43.0147 17.3883 30.6291
1 43.4584 17.5915 32.0045
1 44.0613 16.5592 32.7927
2 44.256 15.6221 32.3296
1 44.5906 16.861 34.0688
2 5.72451 16.088 34.6329
1 44.3702 18.1326 34.649
2 5.63723 18.3475 35.6292
1 43.6437 19.1252 33.8999
1 43.1834 18.8157 32.6334
2 42.5315 19.5878 32.0906
1 43.4866 20.5141 34.4036
1 40.4878 22.2566 19.3597
1 39.3473 23.2404 19.2327
1 38.2466 22.863 18.573
2 38.1167 21.8538 18.1721
1 37.221 23.7266 18.2893
2 36.3403 23.3456 17.8136
1 37.2342 25.0531 18.7628
2 36.3951 25.668 18.5325
1 38.3883 25.4765 19.4834
1 39.4176 24.5698 19.7324
2 40.3491 24.9682 20.2406
1 38.4977 26.9108 19.9445
1 44.1522 21.8847 17.842
1 5.69241 22.7723 16.9071
1 5.77467 22.5179 15.4931
2 44.5646 21.5858 15.0994
1 6.5337 23.3938 14.681
2 6.71235 23.1044 13.6451
1 7.02981 24.5909 15.1843
2 7.54796 25.1826 14.5059
1 6.92495 24.8514 16.5456
1 6.21299 23.9896 17.3386
2 6.07418 24.2628 18.4238
1 7.43148 26.1203 17.1597
1 40.6747 23.5736 34.394
1 39.2568 23.7551 34.0164
1 38.2722 23.5695 34.9902
2 38.5905 23.383 35.9919
1 36.964 23.7809 34.684
2 36.1632 23.7955 35.4868
1 36.5457 23.9155 33.3168
2 35.5379 23.8315 32.9695
1 37.5147 24.0369 32.3027
1 38.8985 24.055 32.6446
2 39.7388 24.121 31.8388
1 37.1077 24.0996 30.8667
1 6.37683 22.4637 35.8079
1 7.81203 22.1129 35.9791
1 8.22147 21.4122 37.1038
2 7.3953 21.0738 37.7534
1 9.53637 20.8919 37.1994
2 9.93487 20.3798 38.0535
1 10.4416 21.1198 36.1756
2 11.412 20.7506 36.2239
1 10.0464 21.8327 34.9825
1 8.71472 22.2332 34.887
2 8.44877 22.7194 34.0354
1 11.0885 22.1455 33.9616
1 14.5492 23.9582 30.706
1 15.4876 24.7754 29.9846
1 16.7899 25.0599 30.5759
2 17.1279 24.6255 31.5507
1 17.5953 26.0013 29.9261
2 18.4838 26.3505 30.4854
1 17.2516 26.5628 28.7002
2 17.9763 27.196 28.2263
1 16.0517 26.259 28.0765
1 15.1476 25.4114 28.7368
2 14.1249 25.278 28.3956
1 15.7227 26.7059 26.6839
3 9.82787 18.2049 25.1836
3 10.3638 16.8215 23.5827
3 9.59606 19.3043 22.1499
3 10.4672 17.2676 22.117
3 12.4033 20.6455 23.5795
3 12.9433 19.2975 21.9283
3 11.1648 18.9525 25.8356
3 12.9009 17.7063 25.0698
3 40.5927 18.5663 27.464
3 40.0973 16.6961 28.4715
3 41.7 17.7963 26.2116
3 41.9677 15.6149 26.3986
3 44.3837 17.4333 27.2023
3 43.4772 15.3479 27.1799
3 42.4996 18.3254 29.9228
3 43.208 16.2564 30.0939
3 41.5809 22.6218 19.8681
3 40.3254 21.0334 19.0033
3 44.3243 21.9584 19.0953
3 43.2343 21.1991 17.3995
3 44.6962 20.4098 19.9347
3 43.4958 18.8204 18.9656
3 42.1619 19.5979 21.5178
3 41.812 18.2401 19.7737
3 41.5605 24.3278 33.8743
3 40.9934 22.6857 35.2299
3 43.2289 21.4432 33.5787
3 43.6462 20.8314 35.637
3 6.04431 23.3344 34.9309
3 44.6763 21.8005 36.4292
3 44.3985 24.7472 35.2608
3 43.1998 24.5093 37.0269
3 10.77 22.856 32.9149
3 12.339 21.7869 34.1016
3 11.5986 20.9167 30.6723
3 13.7986 20.7569 31.2705
3 13.4051 23.7591 30.2376
3 14.6974 23.726 31.9455
3 11.6568 24.4057 32.57
3 13.7695 24.2217 33.1719
3 36.8854 26.161 28.399
3 35.2406 25.5482 29.7603
3 36.928 25.7453 26.6661
3 34.9408 24.7702 26.7548
3 37.1189 22.2208 27.2404
3 35.4284 21.8417 28.5815
3 37.9729 24.1268 29.9234
3 35.8463 24.1053 30.5969
3 9.50263 21.6548 24.2099
3 43.3467 20.3514 27.7675
3 43.2083 22.5621 22.3525
3 43.9847 23.945 31.82
3 10.1012 23.4842 29.7612
3 39.7716 24.05 27.5304
4 10.4693 19.8627 23.9615
4 12.3642 17.629 23.0056
4 42.7319 18.4188 27.8691
4 41.9497 15.6188 28.5688
4 42.9842 21.3537 20.6516
4 41.8343 19.8095 18.2395
4 43.4828 23.4517 33.7785
4 42.6545 22.4859 36.509
4 11.6324 22.9805 31.0354
4 14.0155 21.992 32.9455
4 37.7166 24.2088 27.8858
4 34.7805 23.8185 28.6364
1 41.509 34.4891 28.3758
1 42.3656 35.5096 27.6804
1 41.9927 36.8445 27.6739
2 41.1661 37.0441 28.2229
1 42.8028 37.8236 27.0639
2 42.5529 38.8358 27.1059
1 44.0489 37.4328 26.5367
2 5.56412 38.1713 26.3174
1 44.4767 36.0512 26.4715
1 43.5851 35.1325 27.0327
2 43.74 34.0742 27.1054
1 6.62977 35.5828 26.12
1 41.1253 32.7857 32.1829
1 41.8376 32.7703 33.4482
1 41.3047 33.2141 34.6657
2 40.2929 33.5004 34.7321
1 42.0624 33.2084 35.854
2 41.5745 33.4866 36.7997
1 43.4041 32.9088 35.7636
2 43.9771 32.9429 36.6914
1 43.9932 32.4737 34.4945
1 43.1401 32.365 33.3745
2 43.5783 32.0701 32.454
1 6.2162 32.0949 34.3662
1 38.0393 31.0214 29.8374
1 36.9088 30.0908 29.9104
1 35.7679 30.4953 30.6413
2 35.6982 31.5389 30.9454
1 34.6812 29.6579 30.8973
2 33.8235 30.0263 31.4548
1 34.8232 28.3259 30.5739
2 33.9742 27.6743 30.6918
1 35.9936 27.8351 29.898
1 36.99 28.7848 29.4976
2 37.8739 28.315 29.0125
1 36.0436 26.4493 29.3313
1 38.8157 33.0487 27.3918
1 38.1639 33.1155 26.068
1 37.1587 34.0754 25.8246
2 36.6793 34.6582 26.6603
1 36.4881 34.0635 24.6
2 35.6895 34.7469 24.3831
1 36.8197 33.0808 23.592
2 36.1658 32.938 22.746
1 37.8952 32.1753 23.8349
1 38.6082 32.226 25.0651
2 39.4819 31.6255 25.146
1 38.3184 31.1892 22.7965
1 11.4393 33.7976 25.2997
1 12.7961 33.2787 25.1992
1 13.9413 34.111 25.3102
2 13.807 35.0809 25.5194
1 15.2107 33.6331 25.2032
2 16.0376 34.2845 25.4685
1 15.4685 32.3012 24.8993
2 16.4168 31.9404 24.7889
1 14.3543 31.4155 24.774
1 13.0301 31.9007 24.9208
2 12.2125 31.1698 24.9137
1 14.6582 29.9505 24.5721
1 10.165 34.6831 27.9679
1 10.5817 34.7355 29.4003
1 11.3558 35.8548 29.9094
2 11.6646 36.669 29.2353
1 11.6851 35.9701 31.2718
2 12.2807 36.8469 31.6405
1 11.2928 34.9935 32.177
2 11.5105 35.0309 33.2593
1 10.4019 33.978 31.7336
1 10.042 33.8571 30.3824
2 9.37904 33.0168 30.081
1 9.80018 33.0444 32.6523
1 9.11037 33.803 23.0424
1 9.04764 33.5706 21.6249
1 9.0531 34.6643 20.7571
2 9.37364 35.6504 21.1048
1 8.91677 34.5179 19.3889
2 8.91652 35.3739 18.7192
1 8.69456 33.2383 18.8019
2 8.59785 33.2495 17.7201
1 8.69174 32.1285 19.6149
1 8.83487 32.2861 21.0333
2 8.67862 31.3307 21.6015
1 8.48631 30.8462 18.9012
1 10.5646 29.1866 34.4876
1 11.5363 28.1076 34.8031
1 12.6181 28.3644 35.6327
2 12.6879 29.303 36.1679
1 13.6869 27.4721 35.6814
2 14.584 27.7233 36.2749
1 13.6988 26.3509 34.8945
2 14.615 25.7771 34.9337
1 12.6415 26.0594 34.0139
1 11.584 26.9529 33.9763
2 10.7746 26.7366 33.2584
1 12.7107 24.88 33.12
1 7.49165 29.455 35.7599
1 6.63362 28.5104 36.5915
1 6.18538 28.9527 37.8549
2 6.46719 29.9082 38.2288
1 44.5631 28.1467 38.5847
2 44.2397 28.5064 39.4942
1 44.0355 26.9393 38.089
2 43.4133 26.3904 38.7833
1 44.4617 26.492 36.8729
1 6.14658 27.2951 36.0852
2 6.41968 26.9784 35.1064
1 44.0367 25.1569 36.4056
1 11.0203 28.7475 18.412
1 12.2765 29.1292 19.0068
1 13.0346 30.1333 18.3966
2 12.6953 30.6034 17.4488
1 14.335 30.4533 18.9115
2 14.9171 31.3179 18.4561
1 14.8285 29.8874 20.0925
2 15.7087 30.1997 20.4566
1 14.0431 28.9198 20.7376
1 12.8158 28.4807 20.1575
2 12.2263 27.6612 20.6763
1 14.5016 28.2435 22.0017
1 6.13292 29.9473 17.2741
1 44.0322 30.614 17.1967
1 43.8599 31.7488 16.3697
2 44.7528 32.0793 15.7899
1 42.6715 32.4344 16.3722
2 42.5216 33.3197 15.7458
1 41.5937 32.0437 17.1651
2 40.7662 32.6652 17.1712
1 41.7055 30.9204 17.9685
1 42.9595 30.2266 18.0168
2 43.1504 29.4551 18.7452
1 40.6703 30.4628 18.9231
1 37.0554 28.4837 22.2758
1 36.0071 27.8572 23.1672
1 34.6394 28.1813 23.034
2 34.3063 28.8033 22.2227
1 33.6857 27.648 23.9167
2 32.6183 27.8432 23.9581
1 34.0922 26.9084 24.9611
2 33.2764 26.6019 25.7087
1 35.4027 26.4105 25.057
1 36.4084 26.9485 24.1696
2 37.5396 26.7302 24.2162
1 35.7566 25.5492 26.2146
3 41.3772 33.2912 27.9345
3 40.7288 34.8739 29.2926
3 41.6883 32.5682 31.0534
3 39.9415 33.2155 32.1508
3 39.2483 30.5617 29.7383
3 37.8857 32.2824 29.859
3 39.9759 32.5374 27.4537
3 38.2153 33.3242 28.4474
3 10.4502 33.047 25.0326
3 11.2795 34.981 25.6756
3 9.42598 33.7412 27.5419
3 10.5758 35.5451 27.1045
3 6.76599 34.3955 25.5835
3 7.65793 36.3612 26.2958
3 9.19864 32.8264 23.8152
3 9.01629 35.0353 23.4713
3 9.48511 28.9096 33.8984
3 10.6331 30.3355 35.0256
3 7.89584 28.9821 34.6094
3 7.75831 30.6798 36.1199
3 6.56659 31.4258 33.325
3 7.02542 32.1748 35.3383
3 9.82914 31.8329 32.3398
3 9.33519 33.3898 33.7815
3 10.2552 27.9738 19.0585
3 10.5277 29.395 17.4091
3 7.89148 29.8811 19.4839
3 9.01083 30.646 17.7587
3 6.43871 29.235 18.3481
3 6.98391 30.1549 16.3487
3 7.25769 26.3273 18.3865
3 7.98475 27.066 16.4484
3 40.9965 29.7066 19.8738
3 39.45 30.7795 18.7934
3 39.3993 30.4473 22.8822
3 37.5688 30.995 21.7571
3 38.2749 28.1887 22.3349
3 36.6711 29.4861 21.5794
3 39.1895 27.1615 20.9632
3 37.9575 27.8473 19.3261
3 13.9228 25.7635 22.9561
3 16.1084 25.4982 23.1387
3 14.6588 26.2902 26.1015
3 16.5371 27.3865 26.0203
3 13.7106 29.123 24.7227
3 15.815 29.5475 24.0963
3 13.8207 27.3081 22.514
3 15.5754 28.6006 22.6087
3 42.2583 30.1134 29.0781
3 7.68724 31.3298 26.4386
3 8.0034 29.8216 31.0393
3 7.46209 26.4172 20.161
3 41.8763 28.2585 22.5055
3 11.7926 26.657 25.2767
4 40.9549 31.7518 29.2985
4 39.1531 33.9365 30.3153
4 8.43265 33.235 25.7417
4 9.40246 35.9353 25.303
4 8.39049 30.3903 32.9431
4 9.2074 31.8956 35.2182
4 8.2019 27.9745 18.9364
4 8.72091 29.0469 16.2846
4 40.1625 28.9505 21.6086
4 37.7097 29.9803 19.7774
4 13.6744 27.0993 24.576
4 16.5766 27.4734 23.98
2 6.75852 31.2657 26.4948
2 8.24722 30.5933 26.4489
2 43.5676 20.8448 28.5524
2 43.2104 20.946 27.0247
2 40.0182 23.1975 27.0634
2 40.4298 24.4454 28.159
2 43.3513 24.1041 31.1132
2 5.74341 23.7399 31.6785
2 11.1627 26.2604 24.6906
2 11.428 27.069 26.0906
2 9.76886 22.2652 23.4613
2 9.03313 21.9862 25.0071
2 9.89645 22.9535 29.0091
2 9.62252 24.3137 29.857
2 8.0995 25.7329 20.4741
2 6.72962 26.6131 20.7256
2 43.3065 23.5312 22.4586
2 43.2639 22.0368 23.1076
2 42.2435 27.5681 21.994
2 42.139 28.2914 23.4634
2 7.98372 30.5337 30.4163
2 7.85657 28.8855 30.7999
2 42.594 29.7317 29.865
2 42.7217 29.8272 28.2944
1 32.4784 38.741 23.465
1 31.9487 37.3367 23.4292
1 32.8237 36.1905 23.4925
2 33.8742 36.3801 23.5982
1 32.2149 34.9088 23.3916
2 32.8643 34.019 23.447
1 30.8189 34.7661 23.1328
2 30.3978 33.7374 22.9524
1 30.0132 35.8867 23.2465
1 30.5782 37.1892 23.38
2 29.9122 38.0609 23.5743
1 28.5667 35.7414 23.0408
1 32.5016 41.6411 20.5852
1 31.9923 41.6274 19.1777
1 32.9158 41.6288 18.124
2 33.9713 41.5404 18.3777
1 32.5406 41.7689 16.8266
2 33.3189 41.7468 16.0269
1 31.2001 41.8535 16.5171
2 30.9842 41.8223 15.4098
1 30.1912 41.8792 17.4665
1 30.6153 41.7605 18.8633
2 29.9411 41.8847 19.7081
1 28.7484 41.9398 17.12
1 33.9213 43.6463 22.5595
1 34.3914 5.81843 22.2916
1 35.6265 6.05867 21.7671
2 36.3442 44.4032 21.6437
1 35.958 7.39496 21.356
2 36.9311 7.54504 20.8903
1 35.0679 8.46285 21.4309
2 35.2929 9.44414 20.9514
1 33.8287 8.21415 21.9686
1 33.5155 6.8999 22.444
2 32.5875 6.73166 22.8678
1 32.9308 9.30907 22.2243
1 34.7581 41.8989 25.1446
1 35.4026 42.672 26.2549
1 36.7352 42.7022 26.4333
2 37.3509 41.9878 25.8866
1 37.193 43.6282 27.312
2 38.3136 43.7278 27.4958
1 36.4393 44.3946 28.1675
2 36.8743 5.90468 28.8595
1 35.0593 44.0946 28.1589
1 34.5209 43.2451 27.226
2 33.4617 43.0243 27.1988
1 34.1913 44.6981 29.2464
1 23.5176 34.8235 23.5609
1 22.2394 34.4487 24.2086
1 21.7672 33.1305 24.2934
2 22.3904 32.2837 23.9422
1 20.5158 32.8814 24.874
2 20.1902 31.8319 24.8519
1 19.7437 33.845 25.5309
2 18.776 33.6247 26.0213
1 20.193 35.1609 25.4644
1 21.4383 35.4582 24.8288
2 21.7688 36.4569 24.8725
1 19.5106 36.2375 26.2643
1 25.5503 35.768 19.9956
1 25.6095 36.1715 18.6157
1 25.6475 35.2407 17.578
2 25.5823 34.1276 17.6808
1 25.5776 35.6555 16.2368
2 25.6261 34.9219 15.4489
1 25.5321 37.0241 15.9232
2 25.4973 37.2765 14.8692
1 25.5548 38.011 16.9161
1 25.5471 37.5614 18.251
2 25.5347 38.3417 19.0389
1 25.7195 39.4579 16.5862
1 26.2407 34.8156 24.9997
1 26.5613 34.4351 26.3992
1 26.3447 33.0931 26.769
2 25.9527 32.4035 26.012
1 26.5721 32.7274 28.1113
2 26.6125 31.6641 28.3534
1 26.9075 33.6567 29.1152
2 27.0006 33.2963 30.1255
1 27.1045 34.9728 28.7368
1 26.8834 35.384 27.3954
2 27.0088 36.4105 27.075
1 27.4741 35.9978 29.6608
1 23.6815 41.6199 16.0541
1 22.2074 41.5403 15.8159
1 21.7137 41.4422 14.4533
2 22.3512 41.3775 13.5701
1 20.3544 41.6473 14.1924
2 20.0878 41.7784 13.1518
1 19.4139 41.8707 15.2205
2 18.4359 42.3425 15.0146
1 19.8977 41.8364 16.5368
1 21.2551 41.5923 16.8462
2 21.5529 41.7544 17.8697
1 19.0142 42.1386 17.5841
1 25.2622 44.3496 15.5495
1 24.736 6.5277 15.308
1 24.4857 6.9897 14.0145
2 24.7353 6.35146 13.1343
1 23.9393 8.24541 13.7287
2 23.8087 8.61903 12.714
1 23.73 9.12084 14.7787
2 23.3848 10.1381 14.4856
1 23.9354 8.67422 16.107
1 24.4393 7.38197 16.3772
2 24.7554 7.19763 17.3998
1 23.6637 9.65983 17.1874
1 25.0847 37.3176 31.2733
1 23.7033 36.8006 31.2594
1 23.3368 35.6767 32.1199
2 24.0933 35.347 32.8216
1 22.0548 35.1718 32.1135
2 21.7804 34.4081 32.7657
1 21.0797 35.6827 31.2104
2 20.1447 35.2671 31.3038
1 21.4519 36.6773 30.2537
1 22.7008 37.3142 30.3919
2 22.9809 38.2623 29.8538
1 20.4251 37.1075 29.3247
1 30.0783 38.9635 31.6277
1 31.2769 39.7681 32.0071
1 32.3228 39.1412 32.7645
2 32.2795 38.1578 33.1186
1 33.4682 39.8281 33.0463
2 34.2524 39.2684 33.5745
1 33.6399 41.1633 32.6865
2 34.5271 41.6961 32.968
1 32.5577 41.8295 32.044
1 31.4112 41.1299 31.7182
2 30.6053 41.5723 31.0888
1 32.6249 43.277 31.6405
1 33.517 8.48937 29.3343
1 33.9822 9.42008 28.2666
1 35.3504 9.84071 28.2306
2 36.09 9.56712 29.0294
1 35.8744 10.4723 27.1627
2 36.9639 10.5515 27.1538
1 35.0413 11.0439 26.1879
2 35.5086 11.7261 25.4275
1 33.6685 10.69 26.1748
1 33.1724 9.8253 27.1659
2 32.1783 9.53409 27.107
1 32.8331 11.0282 24.9736
3 31.6781 39.7175 23.2464
3 33.6893 38.9491 23.6255
3 31.8423 42.0518 21.6417
3 33.5923 41.0223 20.7368
3 32.7037 43.296 22.5432
3 34.8516 42.7487 22.7155
3 33.4756 41.813 25.165
3 35.3364 41.7982 24.0466
3 23.8333 36.0944 23.471
3 24.4118 33.9448 23.2875
3 25.8293 36.6249 20.8439
3 25.3624 34.5444 20.3629
3 27.7437 36.6806 23.3928
3 28.1158 34.7263 22.4134
3 26.4434 35.9696 24.6072
3 25.8675 33.8558 24.1906
3 24.1599 41.5481 17.2435
3 24.4979 41.775 15.0831
3 25.7574 44.093 16.6791
3 25.1835 43.4269 14.6898
3 27.8972 41.6672 18.0429
3 28.3727 42.2027 15.9078
3 25.5504 40.3387 17.5089
3 26.0416 39.8323 15.4048
3 25.3887 38.4564 30.7927
3 25.9975 36.6272 31.8063
3 27.6151 37.1643 29.246
3 27.4036 35.8084 30.9451
3 29.1098 39.6517 31.237
3 29.8538 37.7676 31.9829
3 26.1359 39.6328 31.8217
3 27.0516 38.6264 33.5297
3 32.1855 43.6685 30.495
3 33.2709 44.0825 32.3658
3 32.9142 44.3623 29.3075
3 34.741 6.37359 30.0961
3 32.3324 8.07695 29.1591
3 34.2559 7.9594 30.2235
3 30.6178 6.92079 31.9709
3 32.3199 8.00054 32.9103
3 18.4083 40.1677 28.5249
3 16.5943 38.8551 28.5416
3 18.3709 38.968 25.5726
3 17.0444 37.2513 26.0802
3 20.1963 37.1457 26.7836
3 18.2698 36.1667 26.4746
3 20.8047 37.8925 28.3771
3 19.2027 36.7091 29.399
3 30.4536 42.3841 24.7693
3 25.1901 38.943 23.117
3 25.9381 42.8996 19.7898
3 27.4341 40.1042 28.6374
3 29.8575 6.32925 28.9408
3 21.2024 40.5398 26.811
4 32.0995 41.6464 23.7353
4 34.5719 40.5443 22.5909
4 25.6318 36.8757 22.8417
4 26.2463 33.9223 22.0716
4 26.009 42.4079 17.7428
4 26.5476 41.7983 14.8321
4 27.4143 39.0378 30.3503
4 28.0053 37.129 32.5054
4 31.5624 6.48699 30.1444
4 33.9006 6.86913 32.0453
4 19.5883 39.1906 27.3052
4 17.4517 36.9964 28.0826
1 17.7059 10.3839 27.6414
1 18.1847 11.8393 27.7429
1 17.2485 12.8684 27.7848
2 16.1752 12.5556 27.7885
1 17.6244 14.1899 28.0023
2 16.8439 14.995 27.9977
1 18.9675 14.5095 28.0641
2 19.2264 15.5771 28.1013
1 19.9338 13.5178 27.9038
1 19.551 12.1871 27.8427
2 20.254 11.3383 27.7568
1 21.3973 13.9087 27.9491
1 17.6148 8.2345 30.1622
1 18.1422 8.70053 31.4419
1 17.4157 9.50533 32.3463
2 16.4755 9.95619 32.0766
1 17.9295 9.82789 33.6153
2 17.4354 10.5334 34.1974
1 19.1008 9.24923 34.0399
2 19.4093 9.22459 35.072
1 19.8847 8.50422 33.0882
1 19.3813 8.18925 31.8004
2 19.8931 7.43667 31.2517
1 21.1928 7.95692 33.5227
1 16.1266 5.74276 28.9476
1 15.7889 43.5463 29.3824
1 14.535 43.1663 29.8513
2 13.7469 43.9662 30.0267
1 14.1365 41.8834 29.9981
2 13.2027 41.6379 30.5528
1 15.0217 40.8481 29.7328
2 14.6499 39.825 29.9715
1 16.3053 41.1149 29.1962
1 16.7025 42.4703 29.1178
2 17.6543 42.7406 28.7211
1 17.1731 39.9503 28.8266
1 15.7565 7.70032 25.2779
1 15.2654 7.43841 23.8827
1 14.2618 8.28228 23.3144
2 13.8089 9.00734 23.9485
1 13.8468 8.1127 21.986
2 13.0293 8.73987 21.6064
1 14.6246 7.32436 21.1374
2 14.4642 7.32062 20.0652
1 15.554 6.45488 21.6588
1 15.9528 6.56791 23.0053
2 16.8608 6.02776 23.4145
1 16.2511 44.6645 20.8721
1 26.4265 14.877 27.2672
1 27.7767 15.0883 26.7354
1 28.4083 16.3577 26.7117
2 27.9104 17.159 27.136
1 29.647 16.5401 26.1093
2 30.027 17.5397 26.1535
1 30.2271 15.5123 25.4166
2 31.1673 15.755 24.991
1 29.6758 14.1604 25.4207
1 28.4098 13.9919 26.035
2 28.0179 12.9535 26.1797
1 30.2822 13.0915 24.6113
1 23.7091 13.5249 30.1269
1 23.5709 13.0688 31.5471
1 23.1829 13.9736 32.5119
2 22.896 14.9409 32.1845
1 23.2481 13.6205 33.849
2 23.1062 14.2974 34.647
1 23.5977 12.3018 34.2412
2 23.6943 12.1646 35.282
1 23.7415 11.3099 33.2402