2232
 Atoms. Timestep: 0
1 38.6874 35.2576 6.3026
1 37.3693 35.8788 6.74182
1 36.5646 35.1112 7.66323
2 36.8357 34.1173 8.0631
1 35.391 35.6345 8.141
2 34.8063 35.0845 8.82333
1 34.9629 36.8758 7.76319
2 34.0446 37.2388 8.1317
1 35.6429 37.6308 6.81413
1 36.897 37.1717 6.35552
2 37.4126 37.7045 5.57798
1 35.0151 38.8939 6.19781
1 38.5813 32.888 3.89779
1 37.3147 32.315 3.29154
1 36.5921 31.3024 3.95043
2 37.0587 30.9129 4.89821
1 35.3382 30.7747 3.46215
2 34.7232 30.2277 4.19551
1 34.768 31.3434 2.35433
2 33.8615 30.8683 1.977
1 35.4914 32.2055 1.54186
1 36.7679 32.7365 2.06714
2 37.2625 33.5437 1.45019
1 34.8522 32.782 0.332368
1 0.03093 32.8175 3.7051
1 1.07306 32.083 2.8928
1 1.40733 30.7185 3.13883
2 1.02634 30.1678 3.94822
1 2.3769 30.0524 2.3613
2 2.54984 29.0147 2.61155
1 3.00757 30.7296 1.30072
2 3.66027 30.211 0.713496
1 2.89072 32.1066 1.17415
1 1.92548 32.8301 1.99919
2 1.74487 33.8723 1.99692
1 3.82337 32.8018 0.198005
1 0.273699 35.338 5.99137
1 1.24176 36.2372 6.67451
1 1.44217 36.1179 8.00215
2 0.811582 35.3868 8.54443
1 2.28641 36.8831 8.79805
2 2.47544 36.6094 9.8059
1 2.99263 37.941 8.21194
2 3.57152 38.5494 8.84723
1 2.95331 38.0777 6.79627
1 2.04967 37.2348 6.02568
2 1.99434 37.2563 4.94201
1 3.84819 39.1138 6.15804
1 32.6349 0.299839 3.87081
1 31.9696 1.39107 3.09015
1 30.6537 1.75436 3.45403
2 30.0972 1.19968 4.10352
1 30.0546 2.82581 2.79986
2 29.0819 3.17742 3.10658
1 30.6868 3.51216 1.72018
2 30.2032 4.33688 1.20364
1 32.0314 3.10472 1.36027
1 32.6371 2.03892 1.98975
2 33.7303 1.87747 1.74615
1 32.6662 3.79785 0.186102
1 32.7341 38.7662 3.78811
1 32.1544 37.5048 3.18414
1 31.0064 36.9258 3.74364
2 30.4588 37.2738 4.57684
1 30.5842 35.636 3.36101
2 29.7455 35.1079 3.82997
1 31.0595 35.0816 2.23283
2 30.6096 34.1767 1.86236
1 32.0666 35.7342 1.47954
1 32.6967 36.8815 1.97631
2 33.609 37.2625 1.41129
1 32.6071 35.0322 0.267931
1 34.9506 0.342834 6.13008
1 35.651 1.51382 6.73932
1 35.2415 1.96459 7.97984
2 34.3424 1.53753 8.56324
1 35.9325 2.99719 8.57577
2 35.6583 3.31193 9.6823
1 36.9878 3.70306 7.9205
2 37.4266 4.5551 8.40126
1 37.4465 3.26778 6.64735
1 36.7221 2.19694 6.00369
2 36.9142 1.91565 4.96667
1 38.5695 3.90879 6.0382
1 32.8729 35.1511 38.6709
1 32.2283 35.8743 37.5416
1 30.9506 35.4543 37.1811
2 30.3632 34.6855 37.7052
1 30.3635 35.9865 36.0381
2 29.4292 35.6274 35.6863
1 30.9312 37.0808 35.3923
2 30.4705 37.5037 34.5334
1 32.163 37.6107 35.8288
1 32.8173 36.9638 36.8515
2 33.8108 37.2443 37.092
1 32.7776 38.8524 35.0844
1 34.9334 32.6282 38.747
1 35.628 31.9157 37.5794
1 35.2539 30.6937 37.0539
2 34.5214 30.1461 37.5123
1 35.9373 30.0875 36.0385
2 35.7227 28.9995 35.7677
1 37.0524 30.7116 35.4083
2 37.663 30.1457 34.6793
1 37.4506 32.0458 35.76
1 36.6863 32.6312 36.8392
2 36.9601 33.6177 37.1084
1 38.6 32.7766 35.1212
1 38.6758 6.40687 3.78669
1 37.5373 7.0454 3.05067
1 37.0802 8.32434 3.35245
2 37.5578 8.8476 4.07219
1 35.9194 8.8469 2.78505
2 35.5686 9.88151 3.12426
1 35.2267 8.11931 1.77286
2 34.3288 8.56562 1.21749
1 35.7094 6.93188 1.29944
1 36.8285 6.32598 1.98923
2 37.111 5.29154 1.86898
1 34.9596 6.25755 0.154782
1 0.33981 4.13455 6.06896
1 1.6667 3.61361 6.5309
1 2.49049 4.46445 7.19349
2 2.10033 5.49505 7.46126
1 3.77921 4.11557 7.42407
2 4.40696 4.9491 7.89201
1 4.22314 2.74025 7.21899
2 5.21088 2.49436 7.57484
1 3.33272 1.81227 6.63032
1 2.0336 2.25254 6.33857
2 1.34201 1.63966 5.79742
1 3.82864 0.476008 6.23764
1 6.19137 39.0005 3.86583
1 6.86514 37.8472 3.05577
1 8.24453 37.5771 3.20676
2 8.82557 38.1559 3.91077
1 8.84602 36.6395 2.39375
2 9.87336 36.2806 2.58396
1 8.19917 35.9032 1.39588
2 8.74505 35.1548 0.847282
1 6.88058 36.0804 1.24383
1 6.19174 37.0923 2.03457
2 5.08946 37.2283 1.97355
1 6.18278 35.2394 0.18458
3 39.557 36.0013 5.68586
3 38.9177 33.9915 6.40215
3 39.227 33.7403 3.25578
3 38.9185 32.6556 5.14445
3 -0.098709 34.0646 3.58491
3 -0.619153 32.1562 4.59364
3 0.0551685 35.392 4.71544
3 -0.406085 34.5111 6.73788
3 33.9148 0.114037 3.77627
3 31.9631 -0.422849 4.66792
3 33.5252 39.4429 3.05783
3 32.5092 39.0747 5.02495
3 35.7077 39.6511 5.46234
3 33.7527 39.0395 6.29594
3 35.1559 0.0508291 4.93073
3 34.0332 -0.333733 6.77994
3 34.071 35.2455 38.9439
3 32.2106 34.2308 39.318
3 35.3148 33.8195 39.0623
3 34.05 32.0795 39.4671
3 35.53 33.2757 -0.559676
3 33.563 32.6266 0.178837
3 33.2903 35.645 -0.586141
3 32.3446 33.7723 0.0501435
3 38.8638 5.14953 3.68749
3 39.3334 7.12097 4.62031
3 38.7769 3.8304 4.75481
3 39.3223 4.70286 6.71913
3 -0.521595 3.38066 5.49721
3 0.00710672 5.38015 6.25507
3 -0.728453 5.70438 3.02522
3 -0.154087 6.64642 4.96021
3 3.04973 -0.362895 5.63989
3 5.12308 0.16059 6.40285
3 3.80068 39.2519 4.91294
3 4.72285 39.7166 6.87513
3 4.94969 39.2214 3.78795
3 6.93202 39.7662 4.64992
3 5.61738 -0.385209 3.21117
3 6.52739 0.17706 5.11413
3 35.6433 5.52379 39.3486
3 33.6207 6.3365 38.8642
3 33.5828 3.06833 39.3692
3 32.5045 4.92179 38.9719
3 33.9364 3.72484 -0.0645619
3 31.9554 4.61873 -0.56218
3 35.0591 4.97231 -0.0582439
3 34.0785 6.87218 -0.52396
3 40.3018 36.6958 2.73018
3 36.5109 40.6688 2.38384
3 36.2953 36.2577 -1.43599
3 -1.55135 2.67385 2.64531
3 3.1478 -0.929388 2.56706
3 36.6021 2.78508 -1.7113
4 40.642 35.1553 4.066
4 -1.75002 32.8359 6.28277
4 34.8796 -1.82711 3.91845
4 32.5423 -1.79233 6.24033
4 34.7893 34.837 -1.71849
4 32.4522 32.5827 -1.78192
4 -1.82519 4.21293 4.07668
4 40.6627 6.42529 6.27974
4 4.16158 -1.51745 4.2145
4 6.35527 -1.74185 6.29978
4 35.0087 4.05922 40.6607
4 32.5263 6.29143 40.7286
1 0.0452955 3.64013 32.7719
1 1.16694 2.84952 32.1821
1 1.63792 3.20654 30.9119
2 1.00332 3.86773 30.3105
1 2.72107 2.6304 30.3479
2 3.13529 2.97663 29.3574
1 3.45576 1.71916 31.0432
2 4.21425 1.08074 30.6411
1 2.97032 1.25368 32.3323
1 1.77825 1.80987 32.9117
2 1.37536 1.46217 33.9429
1 3.71218 0.0844729 33.013
1 0.302414 6.09735 34.9645
1 1.3731 6.76461 35.7478
1 1.917 7.99386 35.1787
2 1.52121 8.38439 34.2946
1 2.99258 8.64971 35.8283
2 3.34414 9.54073 35.3162
1 3.57518 8.1407 36.9883
2 4.15121 8.82176 37.5888
1 3.10881 6.92653 37.5508
1 2.05348 6.25993 36.9044
2 1.82439 5.25921 37.3472
1 3.82378 6.28607 38.6811
1 38.5229 6.315 34.7979
1 37.1961 6.65562 35.4089
1 36.29 7.20632 34.5856
2 36.5426 7.37731 33.5555
1 35.0127 7.58484 34.9905
2 34.3589 7.92024 34.2266
1 34.5502 7.26313 36.3212
2 33.5339 7.39983 36.584
1 35.4219 6.5431 37.2031
1 36.7821 6.22634 36.7353
2 37.4034 5.7547 37.4807
1 34.866 6.15394 38.552
1 38.6995 3.70479 32.5606
1 37.4839 3.0301 31.9873
1 37.0783 3.35514 30.7212
2 37.7349 4.03061 30.1526
1 35.9469 2.77272 30.1429
2 35.6764 2.88862 29.0734
1 35.2 1.84273 30.8388
2 34.3856 1.26457 30.3128
1 35.5777 1.41759 32.1305
1 36.7427 2.03225 32.6989
2 37.1482 1.76309 33.723
1 34.899 0.290802 32.8014
1 6.65141 38.7994 35.2216
1 7.05672 37.4313 35.7637
1 7.91538 36.6272 34.9969
2 8.403 37.0624 34.1309
1 8.40143 35.3706 35.4334
2 9.1918 34.814 34.8854
1 7.88545 34.8141 36.6269
2 8.21858 33.8015 36.9094
1 7.06352 35.5963 37.4495
1 6.6365 36.856 36.9955
2 6.0495 37.447 37.6122
1 6.45833 34.9415 38.7244
1 5.94688 0.328628 35.0637
1 6.64663 1.45268 35.7577
1 7.94877 1.81513 35.3953
2 8.45171 1.35718 34.5208
1 8.66722 2.84843 36.0548
2 9.55218 3.26802 35.6153
1 8.0965 3.57222 37.0853
2 8.59503 4.46846 37.4198
1 6.80813 3.24179 37.5463
1 6.09356 2.165 36.861
2 4.99487 2.041 37.0818
1 6.18211 4.08122 38.6699
1 3.94698 38.6596 33.1135
1 3.33896 37.4679 32.4457
1 3.9128 36.8552 31.3385
2 4.76354 37.2983 30.7848
1 3.38463 35.6098 30.8625
2 3.85382 35.0663 30.0497
1 2.18107 35.1254 31.3182
2 1.85814 34.1571 30.8828
1 1.45777 35.7801 32.3505
1 2.04499 36.9569 32.9336
2 1.5176 37.3579 33.7733
1 0.227242 35.0752 32.883
1 6.08562 3.99954 0.104254
1 6.6849 3.47996 1.40073
1 7.53932 4.27479 2.1812
2 7.92024 5.19873 1.80897
1 8.046 3.89855 3.40972
2 8.74419 4.52555 3.94825
1 7.58707 2.70704 4.00324
2 7.96285 2.44879 4.99397
1 6.74536 1.77105 3.23963
1 6.39208 2.16522 1.91392
2 5.84308 1.46281 1.25034
1 6.33013 0.421767 3.88598
1 3.8887 6.38049 0.256872
1 3.18174 6.90988 1.45587
1 3.75772 7.97271 2.17436
2 4.78434 8.26148 1.90297
1 3.13896 8.4889 3.27513
2 3.57957 9.31649 3.84347
1 2.04637 7.95553 3.81557
2 1.6942 8.46516 4.72745
1 1.34242 6.92714 3.1183
1 1.95726 6.355 1.9813
2 1.42305 5.59979 1.45191
1 0.114644 6.36985 3.71795
1 0.182511 32.7193 35.0507
1 1.42584 32.13 35.6675
1 2.20147 31.1989 34.9589
2 1.85579 30.7276 34.0541
1 3.42693 30.8036 35.4077
2 3.97887 30.0425 34.8584
1 3.93327 31.3028 36.611
2 4.94662 30.9625 36.8881
1 3.25253 32.2582 37.377
1 1.95606 32.6188 36.9416
2 1.34402 33.3835 37.4342
1 3.91744 32.7952 38.6036
1 38.5638 35.0375 32.7302
1 37.3227 35.7476 32.2584
1 36.6939 35.3049 31.083
2 37.1286 34.4108 30.5804
1 35.6649 36.0667 30.4655
2 35.3105 35.64 29.5392
1 35.1567 37.2241 31.0721
2 34.2663 37.6536 30.6577
1 35.7988 37.7477 32.1859
1 36.8189 36.9459 32.8684
2 37.2564 37.2941 33.7417
1 35.1426 38.8804 32.907
1 32.6053 0.160796 35.153
1 31.9203 1.22983 35.899
1 30.6174 1.66499 35.5521
2 30.0739 1.15348 34.7329
1 30.0541 2.78541 36.1813
2 29.1166 3.14818 35.7492
1 30.7261 3.48151 37.1868
2 30.276 4.30769 37.7115
1 32.0373 3.01837 37.5765
1 32.5681 1.81697 37.006
2 33.529 1.4821 37.3376
1 32.7021 3.68481 38.708
3 -0.174311 3.55787 34.0464
3 -0.593335 4.55009 32.0738
3 -0.0172156 4.83652 35.1371
3 -0.486645 6.79419 34.2224
3 39.5136 5.93628 35.5204
3 38.673 6.30718 33.5062
3 39.3662 3.13361 33.4911
3 38.8741 5.01092 32.3677
3 5.93695 39.5913 35.9174
3 6.65373 38.9611 33.9018
3 4.84767 -0.0909904 35.5378
3 6.56282 -0.34763 34.143
3 3.53605 -0.272975 34.2313
3 4.65668 -0.488775 32.3389
3 3.27377 39.5056 33.7972
3 5.10714 39.0121 32.7418
3 5.30833 3.2576 -0.63496
3 6.18879 5.244 -0.109174
3 3.20626 5.75339 -0.618816
3 5.11881 6.64915 0.064617
3 3.61457 5.05706 38.937
3 4.66699 6.93384 39.3749
3 5.0111 3.76003 39.0458
3 6.76923 5.06003 39.2446
3 -0.72425 33.3169 35.7795
3 -0.0108373 32.5704 33.8005
3 -0.553653 35.7684 33.6119
3 -0.0274869 33.817 32.5949
3 38.8228 35.0974 33.9896
3 39.2225 34.2392 32.0184
3 38.8024 34.0143 35.3789
3 39.327 32.1497 34.2794
3 35.8257 39.7422 33.5777
3 33.8583 39.1221 32.6547
3 35.1765 0.0847254 34.0067
3 34.0462 -0.397744 32.1616
3 33.8953 0.0632542 35.1805
3 31.9171 -0.592235 34.3837
3 33.4092 39.7106 35.7385
3 32.6415 38.9751 33.8193
3 3.75221 34.0323 0.0537065
3 4.65559 32.1559 -0.512996
3 4.90205 35.2883 0.117174
3 6.84772 34.3865 -0.548298
3 5.94202 35.6338 39.6177
3 6.46251 33.64 38.8644
3 3.25746 33.5199 39.4322
3 5.16637 32.5356 38.8372
3 39.8828 3.20431 36.6479
3 3.2641 40.1125 36.8877
3 2.31997 2.62797 -1.67308
3 -1.50323 36.6993 35.9231
3 36.3863 40.8092 36.5818
3 2.50338 35.1392 39.9893
4 40.4948 4.16222 34.9028
4 40.6479 6.29442 32.5865
4 4.30002 40.6535 35.2377
4 6.26871 40.835 32.7777
4 3.86614 4.06998 -1.81568
4 6.2098 6.50443 -1.83737
4 40.7122 34.8513 34.9801
4 40.6588 32.6533 32.6222
4 34.9665 -1.72352 35.0107
4 32.5353 -1.84202 32.7175
4 4.38002 34.6481 -1.85829
4 6.26567 32.5965 -1.83126
2 3.18792 40.4854 37.7113
2 3.00353 39.2413 36.8251
2 36.7505 39.9155 1.86768
2 37.0307 -1.28254 2.21656
2 36.535 1.92019 -1.26709
2 37.5237 2.91651 40.5897
2 -0.950083 2.85651 1.91061
2 -1.86684 1.78876 2.7999
2 1.69046 35.1029 40.5296
2 2.40046 35.6186 39.1339
2 -1.50962 37.1534 2.42179
2 39.4814 36.9076 2.27191
2 3.13873 0.0398565 2.46936
2 3.27815 -1.52581 1.79466
2 -1.3212 37.5231 35.3507
2 -1.54171 36.7384 36.8604
2 36.9168 36.3044 40.4602
2 36.4156 36.7865 -0.668716
2 37.1476 40.2431 36.5009
2 36.0575 -1.50119 37.4472
2 1.50891 2.70984 40.4476
2 2.43086 1.90063 -1.1064
2 39.248 2.50962 36.8646
2 40.3818 3.65737 37.365
1 38.3956 25.717 11.427
1 37.0968 25.0657 10.9555
1 36.3159 25.7624 10.0904
2 36.5515 26.7731 9.72172
1 35.0866 25.2419 9.61808
2 34.409 25.7048 8.88509
1 34.6339 24.0115 10.0593
2 33.6971 23.6704 9.7017
1 35.3688 23.2215 10.9657
1 36.6228 23.7483 11.403
2 37.1534 23.1658 12.152
1 34.8367 21.9124 11.4255
1 38.615 27.9042 13.7833
1 37.2409 28.2402 14.3
1 36.3258 28.9788 13.4992
2 36.615 29.3566 12.5544
1 35.0261 29.3173 14.0479
2 34.4335 30.0661 13.4305
1 34.5932 28.7434 15.2542
2 33.6252 29.0273 15.5114
1 35.4636 27.913 15.9871
1 36.7787 27.7473 15.5019
2 37.5175 27.1034 16.0868
1 34.917 27.4246 17.2751
1 0.207191 27.8322 13.6539
1 1.25358 28.4978 14.4999
1 1.46497 29.854 14.358
2 0.839394 30.5217 13.7153
1 2.45058 30.5008 15.0691
2 2.70186 31.508 14.9874
1 3.26482 29.8028 15.9666
2 3.96826 30.4004 16.5593
1 3.08468 28.4209 16.2043
1 2.08466 27.7494 15.3934
2 1.98944 26.6751 15.4499
1 3.83208 27.7823 17.3244
1 0.112312 25.4287 11.501
1 1.2815 24.6448 10.895
1 1.78566 25.1149 9.71672
2 1.26952 25.9014 9.22789
1 2.92713 24.4895 9.11368
2 3.19074 24.7709 8.03871
1 3.4263 23.2837 9.59206
2 4.24309 22.7315 9.1093
1 2.96401 22.7561 10.8396
1 1.92085 23.4518 11.5127
2 1.71232 23.2245 12.5642
1 3.642 21.5415 11.4135
1 32.8087 17.4297 13.6818
1 32.1333 16.3099 14.4731
1 30.8066 15.8621 14.1065
2 30.1988 16.3333 13.3589
1 30.1712 14.8692 14.8646
2 29.1629 14.5339 14.5566
1 30.8435 14.2188 15.8845
2 30.2942 13.4026 16.2842
1 32.1807 14.5036 16.2368
1 32.8074 15.5625 15.5199
2 33.836 15.8395 15.7809
1 32.7959 13.8122 17.4001
1 32.6109 21.6192 13.7914
1 32.0482 22.9193 14.3568
1 31.1513 23.6536 13.5931
2 30.9128 23.4747 12.5403
1 30.67 24.8531 14.0897
2 30.0669 25.4019 13.3859
1 31.0524 25.3944 15.2994
2 30.7238 26.3513 15.6453
1 31.9408 24.7053 16.1314
1 32.5106 23.4966 15.6283
2 33.2115 22.9414 16.2237
1 32.4931 25.2548 17.4072
1 35.1018 17.6034 11.2859
1 35.728 16.3821 10.7353
1 35.2389 15.8232 9.54183
2 34.4903 16.3838 8.91682
1 35.8648 14.66 8.93784
2 35.3946 14.3233 8.04398
1 36.9882 14.0643 9.53772
2 37.4937 13.2727 8.96171
1 37.4784 14.5855 10.7095
1 36.8397 15.6857 11.2942
2 37.2253 16.074 12.245
1 38.6026 13.9024 11.4331
1 32.6358 25.179 21.5906
1 32.058 24.603 22.8598
1 30.9769 25.2091 23.5421
2 30.515 26.1326 23.2911
1 30.3859 24.5525 24.6749
2 29.536 25.0718 25.1235
1 30.9414 23.438 25.2563
2 30.5653 23.0005 26.1455
1 32.0812 22.8335 24.6336
1 32.5366 23.3602 23.3756
2 33.2249 22.8175 22.738
1 32.5456 21.5449 25.2739
1 34.9028 27.4248 21.6611
1 35.7437 28.1089 22.6784
1 35.5001 29.443 22.9534
2 34.6741 29.9699 22.4821
1 36.4021 30.1641 23.7326
2 36.0998 31.221 23.9909
1 37.4231 29.5075 24.4495
2 37.9334 30.0646 25.2676
1 37.6539 28.1251 24.2545
1 36.8609 27.4347 23.2924
2 37.2315 26.4539 23.0511
1 38.8424 27.5408 25.0588
1 38.5495 11.4442 13.6637
1 37.3208 10.8406 14.3924
1 36.9244 9.56199 14.0531
2 37.5036 8.98429 13.4335
1 35.8919 8.86148 14.6965
2 35.7336 7.81844 14.6082
1 35.1814 9.5941 15.7063
2 34.3762 9.09034 16.2433
1 35.5469 10.8872 16.1149
1 36.5847 11.5105 15.4518
2 36.8729 12.5414 15.7339
1 34.8719 11.4323 17.2979
1 0.136179 13.7246 11.4427
1 1.27582 14.4308 10.8091
1 1.85336 13.9716 9.64919
2 1.40115 13.1195 9.13304
1 2.88087 14.6426 9.00167
2 3.40724 14.2792 8.15573
1 3.42194 15.7898 9.53493
2 4.28255 16.1563 9.02433
1 2.92343 16.3551 10.7279
1 1.89352 15.6012 11.4085
2 1.48087 16.04 12.3484
1 3.63886 17.5145 11.3026
1 6.17115 21.5078 13.6021
1 6.82021 22.6047 14.453
1 8.18403 22.7853 14.3103
2 8.84623 22.0988 13.7662
1 8.88728 23.7033 15.0577
2 9.95298 23.8618 14.9052
1 8.20466 24.5944 15.9409
2 8.74375 25.2499 16.5949
1 6.84107 24.4638 16.1186
1 6.14084 23.4626 15.3112
2 5.05485 23.3005 15.3814
1 6.22245 25.3233 17.2207
3 39.1598 25.0432 12.1995
3 38.7453 26.9128 11.1231
3 39.4556 27.2728 14.4996
3 38.8819 28.0681 12.5143
3 -0.14434 26.6698 13.9596
3 -0.487799 28.5823 12.8674
3 -0.110671 25.2714 12.7444
3 -0.574262 26.2064 10.7622
3 33.9938 17.7362 13.9425
3 32.1181 18.0651 12.8183
3 33.4161 20.8221 14.473
3 32.4117 21.3945 12.4992
3 35.5539 21.1706 12.2073
3 33.6007 21.5254 11.1335
3 35.2543 17.8911 12.4895
3 34.2127 18.2256 10.5892
3 33.9001 25.0494 21.359
3 31.9949 26.1157 21.0103
3 35.1651 26.2339 21.2419
3 34.0821 28.1265 20.9347
3 35.634 26.6988 18.0214
3 33.7166 27.795 17.6454
3 33.2073 24.4899 18.1219
3 32.3833 26.4555 17.7621
3 39.4222 12.0593 14.3218
3 38.7201 11.177 12.3905
3 39.3622 14.5919 12.1953
3 38.8445 12.6556 11.1928
3 -0.0270626 13.8031 12.7128
3 -0.598001 12.9343 10.7524
3 -0.072743 12.6954 13.7899
3 -0.626984 10.7321 13.0215
3 3.01209 18.3186 12.032
3 4.91289 17.6708 11.0407
3 3.63817 21.4162 12.7215
3 4.50806 20.88 10.737
3 4.91408 21.3994 13.7525
3 6.80982 20.6948 12.8073
3 5.57626 18.1529 14.313
3 6.15597 17.6137 12.2784
3 35.7789 11.8237 20.5826
3 33.7992 11.1629 21.3351
3 33.3534 14.307 20.7861
3 32.6056 12.3314 21.4091
3 34.061 13.7816 17.5762
3 32.0777 12.9315 18.0843
3 35.0755 12.6382 17.5813
3 34.0662 10.7293 17.9855
3 40.1891 24.2338 15.0472
3 36.3527 19.8257 15.0341
3 36.2759 24.0084 18.9789
3 40.462 15.0093 15.0894
3 3.58382 18.929 15.3384
3 36.1895 14.9134 20.0403
4 40.5588 25.772 13.6871
4 40.6877 27.931 11.2876
4 34.8877 19.6233 13.5088
4 32.6009 19.508 11.2562
4 34.7278 25.3322 19.3273
4 32.53 27.6532 19.5948
4 40.5652 13.5907 13.5314
4 40.6166 11.3156 11.3875
4 4.23801 19.4596 13.4928
4 6.177 19.5019 11.1727
4 34.833 13.408 19.5887
4 32.5313 11.2718 19.4904
1 0.0346928 14.1163 27.319
1 1.20085 14.79 27.9197
1 1.59154 14.3938 29.1957
2 1.09007 13.6776 29.7829
1 2.51152 15.1409 29.9365
2 2.70395 14.8264 30.9642
1 3.23083 16.1726 29.3175
2 3.92346 16.6855 29.9137
1 3.0549 16.4425 27.948
1 1.98832 15.7828 27.2721
2 1.66628 16.1591 26.2534
1 3.90393 17.539 27.3436
1 0.289438 11.5863 25.2348
1 1.59251 11.1305 24.6368
1 2.38673 10.2891 25.3897
2 2.03108 9.83096 26.3451
1 3.6356 9.86162 24.9498
2 4.16759 9.2145 25.5585
1 4.11322 10.2599 23.7013
2 5.08483 9.88401 23.4043
1 3.35373 11.1117 22.8584
1 2.07091 11.5956 23.3534
2 1.6066 12.3376 22.8541
1 3.96333 11.6803 21.6103
1 38.5605 11.4873 25.2289
1 37.4348 10.7502 24.5049
1 37.07 9.44821 24.8159
2 37.6922 8.81773 25.4158
1 36.0477 8.83768 24.2118
2 35.8228 7.81302 24.4737
1 35.3449 9.43907 23.1816
2 34.5981 8.90896 22.722
1 35.7204 10.6938 22.6936
1 36.7711 11.3381 23.3459
2 36.9982 12.3328 23.0387
1 35.0725 11.2303 21.4743
1 38.754 13.8301 27.4287
1 37.651 14.5829 28.1527
1 37.2513 14.1195 29.4232
2 37.7537 13.2434 29.8693
1 36.159 14.7223 30.0619
2 35.832 14.243 30.9532
1 35.4863 15.807 29.4541
2 34.6621 16.2447 29.9383
1 35.8409 16.2744 28.1932
1 36.969 15.7002 27.5869
2 37.2164 16.0521 26.6007
1 35.0974 17.4759 27.6105
1 6.14902 21.8921 25.0918
1 6.67902 23.185 24.4189
1 7.56469 23.9957 25.2326
2 7.79 23.7951 26.3224
1 8.03282 25.182 24.7192
2 8.79048 25.7682 25.2598
1 7.61123 25.6325 23.4274
2 7.95632 26.6156 23.1179
1 6.75119 24.8559 22.6436
1 6.36717 23.5579 23.113
2 5.77289 22.9105 22.4182
1 6.23061 25.4569 21.3928
1 6.18854 17.4817 25.1566
1 6.77061 16.3005 24.4114
1 8.08802 15.8367 24.8031
2 8.61134 16.2286 25.5704
1 8.72238 14.7841 24.1535
2 9.68446 14.4338 24.5196
1 8.08209 14.0985 23.0729
2 8.52411 13.21 22.6056
1 6.74457 14.5069 22.6793
1 6.09979 15.5239 23.3822
2 5.06536 15.8945 23.0989
1 6.13222 13.8164 21.5066
1 3.99084 21.7107 27.4343
1 3.5043 23.0281 27.8946
1 4.29031 23.8268 28.6943
2 5.23848 23.4493 28.9679
1 3.9245 25.0975 29.1615
2 4.51842 25.7148 29.7805
1 2.67429 25.6082 28.7598
2 2.37697 26.584 29.0803
1 1.81477 24.8227 27.9229
1 2.19659 23.5352 27.576
2 1.5392 22.9095 26.9538
1 0.534098 25.4159 27.5121
1 6.23237 13.7201 17.2721
1 6.75046 14.2611 15.9608
1 7.56487 13.4949 15.1104
2 8.14495 12.6812 15.5553
1 7.87272 13.8939 13.7585
2 8.51877 13.341 13.169
1 7.32698 15.0883 13.2617
2 7.67141 15.3277 12.2568
1 6.5339 15.945 14.0643
1 6.20377 15.5013 15.4102
2 5.59956 16.1162 15.9394
1 5.97824 17.2651 13.5091
1 3.74492 11.5401 17.4174
1 2.95906 10.885 16.3284
1 3.36001 9.58694 15.8374
2 4.27177 9.15023 16.2303
1 2.66939 8.84711 14.8752
2 3.03233 7.84886 14.5977
1 1.59197 9.48126 14.2252
2 1.12719 8.94423 13.4092
1 1.23075 10.8141 14.5314
1 1.92219 11.501 15.5822
2 1.59955 12.4552 15.9025
1 0.129299 11.4513 13.7495
1 0.342123 27.6789 25.1301
1 1.6619 28.2112 24.5245
1 2.56921 28.938 25.3311
2 2.34176 29.3599 26.2935
1 3.74423 29.4037 24.8115
2 4.38403 29.999 25.4815
1 4.25561 29.0602 23.5917
2 5.28358 29.272 23.4444
1 3.40439 28.2886 22.7609
1 2.13336 27.9798 23.2146
2 1.45354 27.491 22.5685
1 4.00896 27.7536 21.5105
1 38.6932 25.2118 27.4792
1 37.5227 24.4389 28.0916
1 36.9958 24.9161 29.2907
2 37.434 25.7757 29.8407
1 35.8241 24.3299 29.8635
2 35.411 24.6407 30.8279
1 35.2083 23.2299 29.2121
2 34.316 22.8426 29.6746
1 35.7057 22.6534 28.1101
1 36.8947 23.2502 27.5451
2 37.3554 22.8901 26.6613
1 35.0775 21.3909 27.5439
1 32.8014 17.2786 25.2826
1 32.1231 16.1405 24.4903
1 30.9979 15.5149 25.062
2 30.6432 15.859 26.0107
1 30.449 14.3285 24.635
2 29.5358 13.861 25.0923
1 31.0211 13.6885 23.5572
2 30.4903 12.8165 23.1307
1 32.1422 14.2449 22.9061
1 32.774 15.403 23.433
2 33.6791 15.7938 22.9369
1 32.7484 13.5775 21.642
3 -0.626149 14.6429 26.3582
3 -0.338954 12.9875 27.7897
3 -0.651216 11.9216 24.4607
3 0.102065 11.5263 26.4957
3 38.7008 12.7528 25.1127
3 39.3832 10.8094 25.9511
3 38.9978 14.009 26.1755
3 39.3922 12.9629 28.1156
3 5.40132 21.1486 24.3805
3 6.37991 21.5749 26.3363
3 4.95868 17.7879 24.9274
3 6.89062 18.1972 25.9448
3 3.76418 17.8109 26.0981
3 4.76631 18.1896 28.0697
3 3.24967 20.8591 26.821
3 5.23505 21.4153 27.5941
3 5.59309 14.4885 18.0207
3 6.33725 12.4746 17.6026
3 3.15594 12.3738 18.163
3 4.9312 11.1225 17.6791
3 3.64646 12.8181 21.1202
3 4.86152 11.0185 21.0271
3 4.91079 14.0748 21.1637
3 6.78732 12.8865 20.8899
3 -0.459725 27.0076 24.4116
3 0.0964593 27.7115 26.3703
3 -0.359828 24.6723 26.8935
3 0.279052 26.6666 27.6001
3 39.0763 24.9574 26.2848
3 39.2618 26.1626 28.1367
3 39.0881 26.2707 24.9557
3 39.5016 28.2145 26.002
3 35.7619 20.5181 26.9529
3 33.8429 21.2364 27.5525
3 35.2355 17.7394 26.4372
3 34.254 18.153 28.3108
3 34.0036 17.6093 24.9688
3 32.1548 17.9437 26.134
3 33.1522 20.686 24.5777
3 32.5557 21.3882 26.5474
3 3.8383 26.4894 17.4447
3 4.49719 28.4822 18.1624
3 4.96023 25.2808 17.4133
3 6.85753 26.1196 17.9905
3 5.6251 24.7282 20.538
3 6.33349 26.7321 21.1974
3 3.33312 27.0372 20.6921
3 5.2609 27.9109 21.2356
3 -1.6362 14.6009 23.3221
3 2.42221 20.1096 23.9674
3 2.56074 15.2696 19.0577
3 -0.862655 24.0162 23.9477
3 36.1434 19.603 23.6144
3 2.43381 24.5244 19.6
4 -1.85151 13.5513 25.1381
4 -1.78549 11.3769 27.54
4 4.07729 19.7404 25.2428
4 6.38117 19.6095 27.5241
4 4.04982 13.843 19.2932
4 6.25693 11.3845 19.433
4 -1.54965 25.463 25.3812
4 -1.75653 27.7147 27.7061
4 34.8292 19.478 25.2206
4 32.6367 19.446 27.7076
4 4.15852 25.6873 19.377
4 6.30182 27.7609 19.3117
2 2.55615 20.214 23.0151
2 1.50768 20.0137 24.2977
2 37.2944 19.4724 14.8238
2 36.1271 20.2357 15.8283
2 36.5891 14.958 20.9181
2 36.6013 15.3372 19.2382
2 40.5831 14.8448 15.9794
2 40.4004 15.9053 14.7215
2 1.89873 24.3521 18.7924
2 2.15793 24.1796 20.4708
2 40.3034 23.3656 14.7216
2 39.513 24.4014 15.7207
2 3.41427 19.4514 16.1631
2 3.13631 18.0404 15.3515
2 -1.53463 23.5583 23.4081
2 0.0805878 23.9689 23.5705
2 37.1293 24.3873 18.731
2 36.176 23.1103 19.3296
2 36.9603 19.0591 23.7203
2 35.6285 19.6859 22.8123
2 1.74148 14.9276 18.6551
2 2.51044 15.9777 19.7078
2 -0.945861 14.4256 22.6818
2 40.1374 15.1196 23.1272
1 27.4839 0.217453 25.2134
1 27.9857 1.42768 24.6287
1 28.9113 2.17 25.3207
2 29.2105 1.90931 26.353
1 29.4568 3.25237 24.6669
2 30.3104 3.74963 25.1744
1 28.9457 3.81185 23.4952
2 29.3007 4.69755 23.1368
1 27.8739 3.15521 22.8257
1 27.4308 1.90655 23.3608
2 26.7075 1.35269 22.7574
1 27.317 3.82787 21.5786
1 25.1304 0.349441 27.4506
1 24.5781 1.6179 27.992
1 25.2252 2.2325 29.0804
2 26.1924 1.83957 29.5035
1 24.6421 3.46526 29.5836
2 25.1127 3.89872 30.4447
1 23.4292 3.91784 29.1641
2 23.0406 4.84148 29.6151
1 22.7838 3.35835 28.043
1 23.3132 2.12529 27.5242
2 22.8511 1.66375 26.6068
1 21.5403 3.97974 27.486
1 25.1104 38.8218 27.7198
1 24.3311 37.6653 28.374
1 24.4863 37.4282 29.75
2 25.1572 38.0345 30.3671
1 23.7479 36.3601 30.3372
2 23.9725 36.1067 31.2977
1 22.7502 35.693 29.6492
2 22.2869 34.8498 30.1385
1 22.5888 35.8957 28.2447
1 23.3751 36.8916 27.6534
2 23.1992 37.0989 26.6364
1 21.5168 35.0992 27.5317
1 27.4406 38.7675 25.3064
1 28.1147 37.6363 24.5438
1 29.4115 37.2636 24.8399
2 29.9655 37.8192 25.5819
1 30.102 36.4118 24.0871
2 31.1813 36.3007 24.3363
1 29.4917 35.5893 23.1182
2 30.0545 34.7916 22.8167
1 28.1916 35.808 22.7422
1 27.4682 36.9209 23.41
2 26.4679 37.2532 23.1144
1 27.5395 35.0166 21.6297
1 25.1483 6.05034 17.2581
1 24.6678 6.48584 15.8975
1 25.5389 7.23864 15.0955
2 26.5685 7.45289 15.3998
1 25.0795 7.65977 13.8183
2 25.6471 8.26242 13.1247
1 23.8047 7.35656 13.4317
2 23.4421 7.86867 12.5025
1 22.9323 6.66194 14.2233
1 23.3144 6.21481 15.4904
2 22.6451 5.72779 16.1112
1 21.6174 6.27445 13.6523
1 24.9957 6.38405 21.5
1 24.3912 6.8538 22.7931
1 24.9884 7.92241 23.5332
2 25.9705 8.41511 23.2304
1 24.498 8.45269 24.7023
2 25.052 9.18636 25.2884
1 23.2738 7.9552 25.1699
2 22.8398 8.48482 26.0653
1 22.5727 6.90844 24.4781
1 23.2231 6.30399 23.3459
2 22.7682 5.41966 23.0121
1 21.2662 6.46283 25.0327
1 27.3876 3.88675 17.4935
1 27.9514 3.14479 16.34
1 29.2312 3.50372 15.9281
2 29.8953 4.20152 16.5445
1 29.7813 2.85439 14.8098
2 30.8337 3.07085 14.6155
1 29.1481 1.82853 14.1313
2 29.5674 1.29676 13.2289
1 27.9814 1.33668 14.6157
1 27.3241 2.08528 15.6704
2 26.3919 1.76841 16.0219
1 27.2905 0.229836 13.8814
1 17.0808 6.22186 25.3682
1 15.827 6.79596 24.7827
1 14.9651 7.63205 25.584
2 15.2456 7.84611 26.6214
1 13.8386 8.24969 25.0335
2 13.3073 9.10505 25.5852
1 13.4608 7.829 23.7904
2 12.427 8.02541 23.5301
1 14.1234 6.83016 23.0353
1 15.3873 6.36163 23.49
2 15.9299 5.60545 22.9425
1 13.4901 6.28717 21.7116
1 17.1912 3.96757 27.3888
1 16.0662 3.22343 28.0113
1 15.6814 3.53187 29.3172
2 16.2356 4.33906 29.8265
1 14.6547 2.80685 29.9825
2 14.2463 3.13697 30.9059
1 14.1204 1.66926 29.3845
2 13.2107 1.24403 29.8651
1 14.4404 1.3275 28.058
1 15.4774 2.09415 27.3811
2 15.7311 1.8365 26.3713
1 13.5703 0.291989 27.3384
1 25.0812 0.322742 11.5929
1 24.4792 1.5306 11.0116
1 25.0261 2.18661 9.87014
2 25.9795 1.741 9.42973
1 24.5169 3.33157 9.29022
2 25.0524 3.77655 8.44729
1 23.3986 3.90716 9.79342
2 23.0814 4.85188 9.3487
1 22.7409 3.34204 10.9425
1 23.2853 2.14756 11.5089
2 22.9065 1.85488 12.4895
1 21.4936 3.9024 11.4315
1 27.4563 38.8407 13.9122
1 28.0862 37.622 14.533
1 29.1543 37.0647 13.906
2 29.5809 37.5268 12.9938
1 29.5936 35.7664 14.3032
2 30.3131 35.2001 13.6463
1 29.016 35.1026 15.3993
2 29.3717 34.115 15.7068
1 28.0364 35.7721 16.1343
1 27.5339 37.0004 15.664
2 26.594 37.3749 16.1216
1 27.5508 35.0924 17.3091
1 24.9537 32.8019 21.4476
1 24.1548 32.1056 22.547
1 24.3277 30.7193 22.743
2 25.0998 30.2422 22.1698
1 23.6337 30.0248 23.7237
2 23.9075 29.0193 23.9561
1 22.7257 30.6816 24.6082
2 22.3689 30.1677 25.3966
1 22.4986 32.0766 24.4138
1 23.1068 32.7493 23.294
2 22.8807 33.7918 23.155
1 21.4032 32.7805 25.1565
3 26.7878 -0.545419 24.5026
3 27.6285 -0.0261295 26.5009
3 24.4214 -0.495503 26.8356
3 26.3904 0.0994286 27.6296
3 25.0031 39.0057 26.4489
3 25.8887 39.553 28.4344
3 26.1835 38.9032 25.2835
3 28.1241 39.3866 26.244
3 24.8771 4.89663 17.6918
3 26.0638 6.75061 17.8764
3 24.2448 5.77286 20.6113
3 26.2495 6.41308 21.2895
3 26.4956 3.15996 20.8543
3 27.5709 5.06528 21.2661
3 26.164 3.64237 17.8743
3 28.0456 4.8058 18.0757
3 17.4557 5.0849 25.0149
3 17.7369 6.90534 26.276
3 17.5046 3.72037 26.1915
3 17.8059 4.86908 28.0257
3 20.7227 3.29766 26.7926
3 21.3358 5.24155 27.6289
3 20.5813 5.58863 24.327
3 21.0108 6.56198 26.2989
3 24.8182 -0.0619101 12.7776
3 25.9943 -0.260791 10.9085
3 26.0215 -0.0239493 14.0006
3 27.9166 -0.408694 12.9747
3 26.7625 39.6337 14.6378
3 27.6214 39.0908 12.6316
3 24.5331 39.4436 12.0822
3 26.5468 38.9614 11.2868
3 26.8089 35.7743 18.1382
3 27.7356 33.8297 17.5535
3 26.3074 35.1006 21.4259
3 28.2561 34.3769 20.7676
3 24.9034 34.0704 21.4284
3 25.8757 32.2213 20.7824
3 24.6677 33.0568 18.2856
3 26.7086 32.7273 17.5174
3 17.57 3.63611 12.5519
3 17.9198 4.66653 10.6109
3 17.4554 4.90528 13.648
3 18.1105 6.86002 12.9651
3 20.6551 5.88654 14.3974
3 21.3667 6.24273 12.3501
3 20.7404 3.24941 12.2197
3 21.2454 5.12872 11.2083
3 23.85 -1.52935 23.9458
3 23.6093 2.5751 19.8653
3 20.0016 3.12202 23.521
3 23.6569 40.3457 14.8726
3 24.6955 36.2771 18.6594
3 19.8845 3.79212 15.4406
4 25.3335 -1.79576 25.3382
4 27.5133 -1.87346 27.7796
4 25.0345 4.08563 19.6878
4 27.4965 6.36689 19.4753
4 19.4632 4.14231 25.36
4 19.3052 6.42509 27.5906
4 25.2387 40.726 13.6407
4 27.5233 -1.78883 11.3088
4 25.5959 34.5844 19.4644
4 27.6961 32.7073 19.4799
4 19.4842 4.34859 13.4683
4 19.3785 6.29681 11.3096
1 11.2362 38.7231 13.6676
1 10.6488 37.5257 14.394
1 9.56694 36.8157 13.8681
2 9.14366 37.1701 12.9409
1 9.16708 35.5938 14.4375
2 8.33697 35.0419 13.9684
1 9.68099 35.158 15.6742
2 9.24205 34.3085 16.1207
1 10.7421 35.8515 16.264
1 11.2671 37.0021 15.5947
2 12.1779 37.4674 15.9429
1 11.3519 35.2653 17.5036
1 13.8887 38.8276 11.3078
1 14.5586 37.5341 10.7901
1 14.0807 36.9927 9.61264
2 13.2468 37.4899 9.12752
1 14.6082 35.802 9.06243
2 14.1604 35.4203 8.21894
1 15.7148 35.2314 9.71449
2 16.1073 34.2986 9.25548
1 16.2943 35.742 10.8504
1 15.675 36.9187 11.4307
2 15.9351 37.2473 12.4368
1 17.5045 35.1235 11.459
1 13.6333 0.227586 11.5313
1 14.2663 1.47444 10.8583
1 13.6563 1.99901 9.66441
2 12.6976 1.60604 9.33253
1 14.2003 3.08569 9.03384
2 13.6657 3.4437 8.139
1 15.4142 3.63786 9.53222
2 15.8215 4.57023 9.15794
1 16.0383 3.14111 10.7303
1 15.4131 2.05221 11.3188
2 15.9595 1.46055 12.0634
1 17.2119 3.84404 11.3185
1 11.2962 0.0729982 13.8481
1 10.6078 1.18497 14.7013
1 9.27232 1.45743 14.4491
2 8.63063 0.768732 13.8325
1 8.5829 2.45115 15.1229
2 7.5508 2.65709 14.8482
1 9.23928 3.14899 16.1786
2 8.66382 3.882 16.7537
1 10.5656 2.96849 16.4588
1 11.2875 2.0102 15.6788
2 12.3093 1.82396 15.9091
1 11.1617 3.79786 17.5212
1 13.7307 32.9135 21.4609
1 14.3161 32.3623 22.7415
1 13.5645 31.4435 23.4457
2 12.6425 30.9777 23.0886
1 14.0681 30.9628 24.7149
2 13.4497 30.2355 25.2459
1 15.329 31.322 25.1527
2 15.6639 30.8221 26.0007
1 16.0592 32.2998 24.4643
1 15.581 32.7978 23.1929
2 16.1411 33.4908 22.5677
1 17.3447 32.7899 25.1539