2232
 Atoms. Timestep: 0
1 39.0746 35.457 5.83843
1 37.73 36.0332 6.20463
1 36.8999 35.2804 6.99731
2 37.0719 34.2591 7.22819
1 35.6653 35.74 7.37289
2 34.9196 35.0152 7.79469
1 35.1469 37.0328 6.98032
2 34.1181 37.2656 7.19762
1 35.9905 37.9328 6.34424
1 37.2953 37.4052 5.91272
2 37.9086 38.0642 5.27232
1 35.4774 39.2501 5.85254
1 39.0887 33.1027 3.61294
1 37.7519 32.52 3.11951
1 37.0125 31.5493 3.84741
2 37.419 31.2674 4.81062
1 35.806 31.0406 3.34846
2 35.2431 30.2938 3.8694
1 35.2707 31.4621 2.09123
2 34.3016 31.0254 1.8197
1 35.9498 32.4304 1.30566
1 37.2077 32.8687 1.76057
2 37.712 33.6513 1.2034
1 35.3526 32.8922 -0.0242865
1 -0.14465 33.1073 3.57321
1 0.990377 32.4778 2.85946
1 1.33943 31.1511 3.16073
2 0.844433 30.6557 4.02086
1 2.31349 30.5048 2.38555
2 2.44373 29.4317 2.58078
1 2.95931 31.1455 1.30579
2 3.50616 30.582 0.527475
1 2.75393 32.4519 1.0225
1 1.63683 33.0642 1.69688
2 1.33867 34.091 1.38905
1 3.48528 33.128 -0.148036
1 -0.11001 35.4212 5.64599
1 1.03887 36.2207 6.23501
1 1.46155 35.7977 7.51702
2 1.28042 34.7973 7.93289
1 2.43277 36.5474 8.18599
2 2.73823 36.2646 9.19269
1 2.93726 37.7205 7.68181
2 3.57138 38.3472 8.27698
1 2.72553 38.0731 6.37414
1 1.74083 37.3339 5.64585
2 1.54185 37.5866 4.64999
1 3.48562 39.2198 5.7546
1 33.0683 -0.155052 3.45324
1 32.4244 0.942071 2.62312
1 31.1178 1.44195 3.05287
2 30.5666 0.995131 3.88631
1 30.4386 2.43014 2.26784
2 29.4484 2.7573 2.66175
1 31.0544 3.0395 1.21212
2 30.5466 3.85395 0.672118
1 32.3846 2.68802 0.831192
1 33.049 1.61212 1.52661
2 34.1493 1.28809 1.34234
1 33.0231 3.36238 -0.333947
1 33.203 39.4412 3.41636
1 32.7367 38.1053 2.77794
1 31.6181 37.5056 3.39636
2 31.124 37.9623 4.23674
1 31.0323 36.3067 2.89413
2 30.127 35.8454 3.35051
1 31.5215 35.701 1.74698
2 31.0784 34.753 1.41338
1 32.6642 36.234 1.08116
1 33.23 37.4674 1.59513
2 34.1709 37.7031 1.20507
1 33.2238 35.4507 -0.0968498
1 35.4245 0.00589368 5.65364
1 36.1951 1.1955 6.30499
1 35.8451 1.51181 7.64047
2 35.2293 0.903866 8.20078
1 36.5583 2.49289 8.34131
2 36.3227 2.74336 9.41296
1 37.4145 3.36648 7.62737
2 37.8887 4.19651 8.22937
1 37.9066 3.02054 6.35174
1 37.2352 1.99394 5.66595
2 37.5264 1.75955 4.65353
1 39.1371 3.68892 5.8132
1 33.2596 35.2833 39.3013
1 32.6768 36.0631 38.1244
1 31.4155 35.6897 37.6413
2 30.965 34.8317 38.0755
1 30.7883 36.3915 36.5675
2 29.9004 36.0137 36.0902
1 31.2951 37.5589 36.0721
2 30.7246 38.2222 35.4056
1 32.6353 37.9004 36.4042
1 33.3139 37.1867 37.4102
2 34.2575 37.4361 37.642
1 33.2077 39.1085 35.6796
1 35.4597 33.0311 39.1626
1 36.0787 32.5162 37.8533
1 35.5938 31.3231 37.3789
2 34.7192 30.8244 37.7935
1 36.1332 30.756 36.2195
2 35.6112 29.8826 35.8718
1 37.2148 31.3527 35.59
2 37.5521 30.9188 34.6877
1 37.8634 32.4987 36.17
1 37.2629 33.0912 37.3161
2 37.8406 33.8512 37.826
1 39.0839 33.0309 35.4789
1 39.2238 5.78286 3.33804
1 38.0326 6.33723 2.60507
1 37.5087 7.57637 2.97404
2 38.0453 8.22879 3.62195
1 36.4527 8.15607 2.27977
2 36.1404 9.2143 2.45082
1 35.7986 7.45563 1.22965
2 35.0294 7.96467 0.640093
1 36.1348 6.14717 0.891037
1 37.2422 5.56453 1.61889
2 37.6759 4.64683 1.27561
1 35.3379 5.50219 -0.247002
1 -0.136064 3.58893 5.96774
1 1.16536 3.02227 6.32386
1 2.03514 3.70513 7.28667
2 1.77303 4.67809 7.72833
1 3.22992 3.13951 7.71952
2 3.8964 3.73021 8.41513
1 3.66268 1.99029 7.11294
2 4.61338 1.57856 7.42545
1 2.87906 1.23057 6.25101
1 1.60906 1.7563 5.83435
2 1.0098 1.15843 5.08137
1 3.42329 -0.129058 5.84833
1 5.70678 39.1446 3.53079
1 6.22271 37.9421 2.76458
1 7.44987 37.4052 3.15084
2 7.99693 37.8281 4.04249
1 7.99647 36.3181 2.58702
2 8.96601 36.01 3.00478
1 7.3322 35.6712 1.50645
2 7.77946 34.8295 1.11316
1 6.19482 36.2398 0.97316
1 5.5845 37.3432 1.61861
2 4.60397 37.6763 1.2368
1 5.61177 35.502 -0.254131
3 39.9233 36.1656 5.20627
3 39.2972 34.2059 6.09647
3 39.8736 33.7697 2.90945
3 39.4028 32.8989 4.86523
3 -0.463199 34.3511 3.30495
3 -0.791061 32.4474 4.46824
3 -0.43915 35.6496 4.39425
3 -0.775382 34.5314 6.34938
3 34.2735 -0.46978 3.22678
3 32.4511 -0.812321 4.3708
3 33.9045 40.2473 2.70684
3 32.937 39.6624 4.65566
3 36.2016 40.1117 5.25683
3 34.2067 39.5263 5.96798
3 35.6769 -0.367778 4.42308
3 34.6039 -0.650935 6.3621
3 34.4847 35.4882 39.59
3 32.5894 34.33 39.9036
3 35.7154 34.2434 39.5266
3 34.5698 32.397 39.9161
3 36.0598 33.3171 -0.978378
3 34.0631 32.8952 -0.19468
3 33.9969 36.0036 -0.958158
3 32.7925 34.1982 -0.396585
3 39.4524 4.50572 3.35039
3 39.8587 6.50021 4.19887
3 39.4856 3.53913 4.61318
3 39.7749 4.58789 6.54059
3 -0.897228 2.87665 5.19431
3 -0.476988 4.82745 6.15577
3 -0.976936 5.36623 2.87981
3 -0.355199 6.09957 4.85497
3 2.68725 -0.931045 5.19254
3 4.72034 -0.387951 5.955
3 3.35291 39.5369 4.51007
3 4.30727 39.8879 6.51566
3 4.54928 39.6128 3.27027
3 6.33067 39.6439 4.55449
3 5.23405 -1.04799 2.8221
3 5.90807 -0.459153 4.8017
3 35.9675 5.13647 39.9225
3 34.0135 6.00246 39.2597
3 33.6378 2.71009 39.7549
3 32.7304 4.69794 39.3614
3 34.2325 3.13165 -0.65845
3 32.3907 4.36909 -0.897787
3 35.5727 4.32139 -0.581734
3 34.3757 6.12568 -0.816689
3 40.4207 36.1694 2.03752
3 37.1706 40.6457 3.36604
3 37.0908 35.9509 -1.76467
3 -1.45454 2.01412 3.45941
3 1.84657 -1.60065 3.46183
3 36.1676 2.00284 40.462
4 41.1198 35.1915 3.76064
4 41.2062 32.9294 6.00899
4 35.2072 -2.32527 3.84126
4 33.0353 -2.25098 6.02179
4 35.3877 34.9731 -2.14267
4 32.9265 32.8402 -2.15796
4 -2.12521 3.94311 3.9554
4 -2.32913 6.12042 6.00003
4 3.84569 -2.13128 3.91182
4 5.91339 -2.35359 6.06462
4 35.0181 3.6688 41.0851
4 32.7831 5.90214 -2.39319
1 -0.126198 3.56714 33.2665
1 1.10305 2.86301 32.6831
1 1.61227 3.38843 31.4984
2 1.1256 4.21808 31.0194
1 2.64366 2.77313 30.812
2 2.95794 3.18058 29.8932
1 3.25192 1.64332 31.3677
2 4.06158 1.12737 30.7741
1 2.82205 1.06099 32.5764
1 1.69723 1.68732 33.2503
2 1.28776 1.29043 34.1595
1 3.57811 -0.128464 33.111
1 -0.162849 5.73024 35.5243
1 0.938412 6.35578 36.3385
1 1.17082 7.79582 36.2087
2 0.616545 8.35045 35.4382
1 2.01112 8.41902 37.0931
2 2.10827 9.52874 36.9826
1 2.76609 7.66795 37.973
2 3.46615 8.25736 38.5783
1 2.55554 6.32088 38.1932
1 1.6755 5.63239 37.2987
2 1.62076 4.53834 37.3862
1 3.33484 5.68711 39.3153
1 39.1054 5.77627 35.5686
1 37.8194 6.29613 36.163
1 37.0314 7.209 35.3711
2 37.3678 7.59049 34.463
1 35.7621 7.57379 35.8053
2 35.2225 8.21987 35.1654
1 35.1824 7.14095 37.0073
2 34.2133 7.45155 37.2696
1 35.9089 6.27973 37.8093
1 37.2622 5.89388 37.3768
2 37.8234 5.12522 37.883
1 35.2836 5.76107 39.0732
1 39.1268 3.45466 33.2007
1 37.7726 2.86768 32.7817
1 37.0114 3.61801 31.9376
2 37.3864 4.56015 31.5478
1 35.791 3.15563 31.5221
2 35.2058 3.817 30.8838
1 35.2052 1.951 31.9598
2 34.2475 1.62521 31.6417
1 36.0205 1.0491 32.687
1 37.3283 1.54959 33.1706
2 37.8862 0.98504 33.8733
1 35.4073 -0.323939 33.0988
1 5.80622 39.2294 35.366
1 6.11424 37.8644 35.981
1 6.68644 36.893 35.1039
2 7.09327 37.1173 34.0682
1 6.89208 35.5744 35.5203
2 7.386 34.8552 34.8845
1 6.54885 35.1768 36.79
2 6.56614 34.091 37.0253
1 5.94424 36.0509 37.6984
1 5.79643 37.4357 37.2931
2 5.31883 38.033 38.0166
1 5.59495 35.476 39.0862
1 5.63281 -0.120527 35.4032
1 6.25449 1.00422 36.1681
1 7.4393 1.45038 35.6415
2 7.89448 0.934539 34.8456
1 8.15023 2.51282 36.3511
2 9.08981 2.86488 36.0206
1 7.59083 3.1055 37.5154
2 8.13798 3.87094 38.0249
1 6.32625 2.74624 37.9591
1 5.67714 1.63912 37.3191
2 4.61036 1.29902 37.5058
1 5.70944 3.55575 39.1482
1 3.42911 39.0679 33.0915
1 2.9341 37.727 32.6817
1 3.50668 37.046 31.5819
2 4.44889 37.4572 31.1868
1 3.02162 35.7845 31.1582
2 3.47784 35.308 30.3549
1 1.92257 35.1897 31.7502
2 1.47294 34.2661 31.3917
1 1.19639 35.8742 32.7269
1 1.74648 37.1607 33.2345
2 1.22539 37.753 34.0023
1 -0.0901037 35.2517 33.228
1 5.78999 3.45954 -0.191117
1 6.25591 2.87138 1.18363
1 7.04478 3.6488 2.06217
2 7.35567 4.64159 1.66418
1 7.42614 3.25795 3.3284
2 8.03497 3.95882 3.92133
1 6.94987 2.01866 3.8093
2 7.24204 1.70064 4.79017
1 6.26052 1.11951 2.99694
1 5.93892 1.55203 1.68169
2 5.30884 0.980042 1.08408
1 5.8752 -0.245038 3.54195
1 3.45132 5.75854 -0.247113
1 2.91318 6.34414 1.06022
1 3.68777 7.20029 1.87506
2 4.67875 7.51374 1.54802
1 3.29302 7.6286 3.1634
2 4.02236 8.29651 3.73464
1 2.12775 7.12289 3.69994
2 1.91001 7.45602 4.73033
1 1.28255 6.32539 2.93986
1 1.68647 5.88846 1.58444
2 1.0751 5.15967 1.13151
1 -0.0717231 5.88383 3.60663
1 -0.160356 32.9251 35.4205
1 1.15033 32.4121 36.0581
1 1.98565 31.6258 35.2305
2 1.74433 31.3469 34.2543
1 3.27941 31.3346 35.758
2 4.00377 30.8493 35.0538
1 3.73936 31.8328 36.9851
2 4.78805 31.7505 37.1712
1 2.88775 32.5544 37.842
1 1.58513 32.75 37.3985
2 0.893582 33.4117 38.0085
1 3.40756 33.0756 39.1369
1 39.1238 35.3075 33.31
1 37.8555 36.0011 32.7451
1 37.4508 35.5695 31.4953
2 37.9014 34.7143 31.0033
1 36.3824 36.2045 30.8474
2 36.0454 35.8637 29.8544
1 35.6721 37.322 31.4316
2 34.8553 37.7746 30.885
1 35.9878 37.7334 32.7482
1 37.171 37.0999 33.3682
2 37.5236 37.4662 34.2806
1 35.2816 39.0271 33.2536
1 32.9775 -0.260267 35.5266
1 32.4655 1.03748 36.0506
1 31.3342 1.67276 35.4684
2 30.8654 1.17521 34.5794
1 30.8596 2.89436 35.9575
2 29.9701 3.25676 35.5725
1 31.4675 3.55945 37.0468
2 31.1392 4.52266 37.4425
1 32.5082 2.91127 37.707
1 33.083 1.70245 37.1703
2 34.0198 1.26773 37.6475
1 32.9561 3.46609 38.9943
3 -0.493451 3.32613 34.4811
3 -0.818871 4.41377 32.5535
3 -0.457708 4.497 35.6831
3 -0.835107 6.42278 34.6553
3 39.8776 5.04231 36.2613
3 39.3725 5.96238 34.3217
3 39.9238 2.72144 33.8976
3 39.4094 4.67814 32.9822
3 5.23018 40.1273 36.045
3 6.04884 39.4533 34.0909
3 4.40442 -0.487405 35.603
3 6.25981 -0.815755 34.4823
3 3.37867 -0.524549 34.3158
3 4.39472 -0.81411 32.3578
3 2.71557 39.8574 33.7732
3 4.63965 39.4841 32.7904
3 5.11197 2.72444 -0.963708
3 5.9402 4.68793 -0.446236
3 2.69355 5.09745 -1.01773
3 4.74289 5.87652 -0.477543
3 3.18937 4.45341 39.54
3 4.27343 6.3647 39.865
3 4.51843 3.28569 39.5012
3 6.40538 4.42306 39.7539
3 -1.06293 33.4709 36.1397
3 -0.311343 32.7969 34.1505
3 -0.896997 35.9234 33.9756
3 -0.40323 34.0173 32.9614
3 39.388 35.4462 34.5217
3 39.8196 34.4856 32.6064
3 39.4006 34.2789 35.6924
3 39.7551 32.3368 34.6086
3 35.5199 39.4261 34.4487
3 34.2952 39.5782 32.6305
3 36.1499 -1.07931 33.7857
3 34.18 -0.656402 32.9118
3 33.7571 -0.952704 36.2013
3 32.7618 -0.595023 34.3055
3 34.456 39.4441 35.8359
3 32.5504 39.7229 34.7375
3 3.18735 34.3486 -0.457052
3 4.36481 32.4978 -0.825483
3 4.34391 35.5941 -0.466069
3 6.36006 34.67 -0.921499
3 4.89573 36.1855 39.8695
3 5.82418 34.2099 39.4041
3 2.64675 33.6933 39.9897
3 4.63281 32.8592 39.4183
3 40.6709 2.09694 36.736
3 2.05601 40.4198 35.237
3 2.30696 2.0366 -1.71019
3 -1.44602 36.8195 35.7627
3 36.8262 -1.30873 35.6403
3 2.27455 36.5435 40.6289
4 41.0973 3.68507 35.3323
4 -2.28266 5.98916 33.0746
4 3.88766 41.2458 34.8237
4 5.91856 -2.34339 32.8736
4 3.62968 3.58276 -2.16858
4 5.98045 5.96146 -2.32759
4 -2.18523 34.93 35.2961
4 -2.18572 32.8808 32.937
4 34.9607 -2.25765 35.0635
4 32.8146 41.248 33.0057
4 3.57744 35.1624 41.2236
4 5.93428 32.9548 -2.36347
2 1.36175 41.084 35.2854
2 1.88351 39.6979 35.8194
2 37.9745 41.1946 3.55909
2 37.2735 39.9054 2.75124
2 36.7001 1.60697 41.1528
2 36.0641 1.51484 39.6341
2 -2.20173 1.30981 3.59489
2 -0.860776 1.9335 2.73729
2 2.2116 36.5741 39.6391
2 1.91066 37.2797 41.2098
2 41.0034 36.5097 1.32202
2 39.5128 36.3735 1.98999
2 1.73735 -0.737478 3.13255
2 1.08404 -2.23352 3.39102
2 -1.06766 36.9631 36.6083
2 -1.65525 37.6761 35.3644
2 36.9555 36.9286 -1.84651
2 37.7488 35.6382 -1.09753
2 36.7433 -0.340631 35.8652
2 37.6229 -1.80272 35.8958
2 2.00146 1.63885 41.083
2 1.93003 1.96113 -0.829934
2 -2.20376 1.47018 36.9718
2 39.7821 1.83366 37.0417
1 39.0517 25.4439 11.2999
1 37.668 24.9665 10.84
1 36.8776 25.7258 9.98352
2 37.2419 26.6099 9.47311
1 35.6227 25.3166 9.44275
2 35.1471 25.8984 8.6584
1 35.0768 24.17 9.93638
2 34.168 23.8504 9.44813
1 35.7973 23.325 10.8213
1 37.1265 23.6906 11.1661
2 37.6644 23.0563 11.902
1 35.2836 21.924 11.2357
1 39.159 27.5554 13.7286
1 37.8477 28.0916 14.3834
1 37.2231 29.2379 13.7806
2 37.6185 29.5814 12.7958
1 36.0939 29.8285 14.2792
2 35.6463 30.6908 13.7739
1 35.5766 29.308 15.4584
2 34.7199 29.7398 15.895
1 36.1132 28.1419 16.087
1 37.3161 27.594 15.612
2 37.7338 26.8225 16.2078
1 35.4575 27.6966 17.4132
1 -0.238763 27.5318 13.58
1 0.950045 28.1085 14.2439
1 1.53843 29.3141 13.7034
2 1.18044 29.7805 12.8115
1 2.63525 29.9389 14.3578
2 3.133 30.8165 14.0027
1 3.28391 29.2677 15.3734
2 4.16652 29.757 15.7776
1 2.75795 28.1591 15.956
1 1.51025 27.5796 15.438
2 1.07522 26.6922 15.9724
1 3.44573 27.6165 17.1359
1 -0.152444 25.2798 11.4307
1 0.97334 24.4893 10.7758
1 1.45413 24.9861 9.55679
2 0.927151 25.7828 9.04462
1 2.52059 24.3506 8.93595
2 2.8577 24.6773 7.90898
1 3.15831 23.2791 9.56999
2 3.8954 22.6777 9.00918
1 2.73998 22.7584 10.7938
1 1.59473 23.392 11.4064
2 1.30735 23.0647 12.4044
1 3.44351 21.5638 11.368
1 33.3446 17.6685 13.7744
1 32.6478 16.5215 14.4913
1 31.4651 16.0057 13.9867
2 30.9713 16.3817 13.0604
1 30.8843 14.8048 14.4022
2 29.9302 14.4201 13.9485
1 31.4214 14.1376 15.5267
2 31.0035 13.2349 15.8026
1 32.5992 14.6186 16.1018
1 33.2203 15.8377 15.5842
2 34.0677 16.1647 16.0505
1 33.134 13.8809 17.3029
1 33.113 21.8196 13.5825
1 32.5966 23.0517 14.2928
1 31.702 23.8626 13.649
2 31.3181 23.6133 12.6297
1 31.1794 25.0166 14.2229
2 30.4076 25.6283 13.6811
1 31.6821 25.5744 15.4324
2 31.2802 26.4653 15.8647
1 32.568 24.7943 16.1677
1 32.9663 23.5096 15.6253
2 33.7327 22.9394 16.1903
1 33.1458 25.3757 17.4649
1 35.575 17.5973 11.3412
1 36.3733 16.5217 10.6931
1 36.0813 16.1251 9.35952
2 35.2876 16.6875 8.87501
1 36.7624 15.1792 8.75726
2 36.4432 14.9446 7.76724
1 37.6304 14.3702 9.51155
2 38.0398 13.5478 8.96567
1 38.0227 14.6067 10.8145
1 37.3956 15.7684 11.458
2 37.6219 16.1123 12.4366
1 39.0301 13.6613 11.3972
1 33.2098 25.5573 21.7165
1 32.5274 24.7143 22.8304
1 31.1659 24.9449 23.1183
2 30.6119 25.7152 22.6998
1 30.4153 24.1216 23.9894
2 29.4041 24.2262 24.0396
1 31.0607 23.1648 24.689
2 30.4588 22.5869 25.4215
1 32.4647 22.905 24.5288
1 33.1363 23.6454 23.4931
2 34.1762 23.3488 23.26
1 33.098 21.8425 25.383
1 35.4612 27.9037 21.6226
1 36.1907 28.4831 22.8146
1 35.9085 29.7819 23.2686
2 35.0545 30.3367 22.8164
1 36.6628 30.4292 24.2315
2 36.4457 31.422 24.5687
1 37.6672 29.7352 24.8085
2 38.1145 30.1954 25.6473
1 37.9214 28.3744 24.5724
1 37.2335 27.7853 23.4407
2 37.4215 26.7503 23.1588
1 39.0887 27.7489 25.3023
1 38.9735 11.4138 13.5802
1 37.8402 10.8081 14.3928
1 37.6021 9.43576 14.2201
2 38.133 8.83932 13.4657
1 36.7074 8.75083 15.0784
2 36.571 7.67444 15.0328
1 35.9227 9.41972 15.9847
2 35.3077 8.75892 16.6112
1 36.0502 10.8122 16.1692
1 37.0825 11.4662 15.4044
2 37.2024 12.5012 15.5417
1 35.225 11.4081 17.2879
1 -0.212766 13.5755 11.2736
1 1.19458 14.0649 10.9366
1 2.034 13.2394 10.2198
2 1.74147 12.2362 9.95838
1 3.28027 13.7631 9.81068
2 3.94302 13.1562 9.1705
1 3.71374 14.9934 10.1528
2 4.6791 15.2757 9.86343
1 2.94439 15.8975 10.9118
1 1.66882 15.3838 11.3045
2 1.02608 16.0286 11.9318
1 3.51684 17.2513 11.3251
1 5.6178 21.6073 13.589
1 6.29226 22.806 14.3165
1 7.52978 23.1941 13.9622
2 8.02761 22.8188 13.1217
1 8.14972 24.2247 14.6774
2 9.15952 24.4018 14.4634
1 7.40411 24.9845 15.6158
2 7.88627 25.8313 16.0181
1 6.16806 24.6046 16.0428
1 5.56483 23.5244 15.356
2 4.53085 23.2291 15.5922
1 5.59991 25.3389 17.192
3 39.789 24.6743 11.9967
3 39.3454 26.6533 11.1567
3 39.9854 26.9222 14.4348
3 39.4581 27.8353 12.4727
3 -0.524142 26.3188 13.7102
3 -0.901366 28.2612 12.7581
3 -0.517696 25.1509 12.633
3 -0.776789 26.1691 10.7015
3 34.5818 17.8889 13.8917
3 32.6865 18.2776 12.853
3 33.8895 21.0253 14.2304
3 32.8285 21.5819 12.3275
3 36.1 21.1728 11.8839
3 34.0419 21.6103 11.1054
3 35.698 17.7871 12.634
3 34.7229 18.3367 10.6836
3 34.4381 25.3632 21.4258
3 32.5241 26.458 21.0613
3 35.6784 26.6372 21.3508
3 34.5205 28.5151 20.9732
3 36.1103 27.0878 18.2717
3 34.1801 27.9254 17.6071
3 33.8357 24.645 18.257
3 32.9228 26.6066 17.8037
3 39.3333 12.6286 13.7591
3 39.7045 10.658 12.8211
3 39.3163 13.7845 12.6303
3 39.667 12.8098 10.6219
3 -1.02551 14.3132 11.9018
3 -0.502757 12.2744 11.1788
3 -1.01821 11.9858 14.4809
3 -0.433342 11.1105 12.5011
3 2.9038 18.0043 12.1738
3 4.73444 17.5587 10.9959
3 3.18943 21.2335 12.5922
3 4.38927 20.8724 10.731
3 4.39052 21.3672 13.8228
3 6.29294 20.9111 12.8091
3 5.22738 18.1855 14.4737
3 6.17433 17.6896 12.5492
3 36.0682 11.9618 20.7118
3 34.0983 11.2149 21.2439
3 33.573 14.5135 20.6174
3 32.7766 12.5707 21.3278
3 34.3554 13.9485 17.6016
3 32.4174 12.9768 17.9404
3 35.3114 12.6518 17.5603
3 34.3702 10.683 17.982
3 40.6998 23.7732 14.3506
3 36.7171 20.3637 14.826
3 35.7743 24.0021 18.6656
3 -1.74026 14.1116 15.2833
3 2.1645 18.9126 14.603
3 36.8676 13.9049 20.1898
4 41.1613 25.5009 13.3684
4 -2.27758 27.7869 11.1587
4 35.3539 19.8288 13.3961
4 33.0154 19.6594 11.1714
4 35.0565 25.8373 19.4536
4 32.8701 28.0275 19.5038
4 -2.26226 13.3605 13.402
4 41.1873 11.1227 11.2301
4 3.7295 19.3551 13.4443
4 5.932 19.4616 11.1908
4 34.9615 13.312 19.533
4 32.7775 11.254 19.438
1 -0.32627 13.7613 27.5912
1 0.810222 14.5604 28.2016
1 0.974836 14.4677 29.5941
2 0.30495 13.8485 30.2119
1 1.95934 15.234 30.2429
2 2.16573 15.04 31.2793
1 2.78337 16.1193 29.5666
2 3.49128 16.7283 30.1504
1 2.55469 16.3657 28.1644
1 1.58272 15.5212 27.4773
2 1.35227 15.6861 26.4001
1 3.4113 17.4487 27.4892
1 -0.393051 11.4948 25.4416
1 0.861421 10.859 24.7225
1 1.40005 9.66294 25.2464
2 0.957024 9.14538 26.0929
1 2.49995 9.04451 24.625
2 2.79632 8.08259 24.9657
1 3.21372 9.66954 23.6416
2 4.12689 9.29065 23.2304
1 2.70162 10.7937 23.0179
1 1.54532 11.4604 23.5955
2 1.0914 12.3523 23.2109
1 3.48373 11.4442 21.8432
1 38.9911 11.2101 25.3814
1 37.6994 10.693 24.6773
1 36.9328 9.67379 25.2825
2 37.2397 9.19885 26.2491
1 35.6541 9.3629 24.784
2 35.0445 8.64294 25.2953
1 35.1921 9.83437 23.5324
2 34.2249 9.58003 23.1493
1 35.9307 10.7998 22.852
1 37.2116 11.1606 23.3534
2 37.6458 11.9554 22.7648
1 35.3461 11.3767 21.5333
1 38.8439 13.588 27.8095
1 37.5601 14.3041 28.177
1 36.5596 13.5055 28.6873
2 36.7195 12.4381 28.7364
1 35.3198 14.0124 28.969
2 34.476 13.3441 29.1931
1 35.048 15.3806 28.8195
2 33.8964 15.6398 28.8246
1 35.9627 16.2788 28.2224
1 37.2129 15.7156 27.8657
2 38.002 16.4247 27.5026
1 35.3666 17.5345 27.7131
1 5.83429 21.7022 25.031
1 6.41117 22.9823 24.4324
1 7.47104 23.7061 25.0698
2 7.87785 23.1978 25.8828
1 7.87584 24.9561 24.6173
2 8.73 25.4108 25.106
1 7.2229 25.5534 23.5453
2 7.5122 26.5252 23.3041
1 6.25684 24.8344 22.8041
1 5.89001 23.5005 23.221
2 5.10117 22.9227 22.7949
1 5.7555 25.4688 21.4992
1 5.78663 17.3162 25.2992
1 6.45115 16.206 24.5738
1 7.83595 15.9023 24.8232
2 8.40004 16.4046 25.6626
1 8.43313 14.8013 24.1591
2 9.48643 14.5519 24.3568
1 7.68978 14.0853 23.2327
2 8.247 13.2249 22.8137
1 6.36551 14.396 22.9216
1 5.76028 15.4984 23.6023
2 4.73711 15.8054 23.3374
1 5.73985 13.6678 21.6889
1 3.48414 21.5943 27.425
1 2.98009 22.9828 27.7049
1 3.93951 23.9549 28.0695
2 4.91791 23.6081 28.2718
1 3.60221 25.2874 28.2291
2 4.39853 25.9583 28.5494
1 2.29696 25.7355 28.0157
2 2.11138 26.8223 28.1412
1 1.28454 24.7908 27.7111
1 1.62155 23.4107 27.5106
2 0.843881 22.7802 27.0716
1 -0.113764 25.4168 27.4304
1 5.71067 13.762 17.4096
1 6.28358 14.3566 16.1094
1 7.06622 13.5169 15.2915
2 7.49902 12.5942 15.6255
1 7.57951 13.9934 14.0695
2 8.18198 13.3821 13.4154
1 7.24969 15.2714 13.6351
2 7.55785 15.5559 12.6283
1 6.47918 16.1711 14.4272
1 6.08059 15.7333 15.7484
2 5.44824 16.3118 16.3962
1 5.99852 17.4205 13.8101
1 3.51827 11.3393 17.4207
1 2.91927 10.8696 16.1459
1 3.59415 9.9293 15.4232
2 4.47422 9.47072 15.7827
1 3.02375 9.33532 14.2703
2 3.55774 8.58733 13.6637
1 1.83009 9.85695 13.7447
2 1.48872 9.41305 12.8129
1 1.05473 10.801 14.4213
1 1.64234 11.3582 15.5965
2 1.09064 12.1599 16.0884
1 -0.190892 11.2844 13.7679
1 -0.307376 28.0191 25.2459
1 0.987124 28.4993 24.6127
1 1.68632 29.5166 25.2985
2 1.2931 29.9499 26.2527
1 2.97774 29.9149 24.8315
2 3.60448 30.5773 25.4937
1 3.52005 29.3665 23.6471
2 4.52925 29.6194 23.3853
1 2.77901 28.3821 22.8885
1 1.49623 27.9951 23.3701
2 0.973009 27.1896 22.8251
1 3.38534 27.8105 21.6151
1 39.1301 25.3896 27.519
1 37.9861 24.6136 28.1922
1 37.6898 24.9206 29.54
2 38.1942 25.6868 30.0933
1 36.7541 24.2039 30.2669
2 36.6017 24.4008 31.2964
1 35.9848 23.1679 29.6851
2 35.3413 22.608 30.3195
1 36.099 22.9377 28.2847
1 37.1014 23.692 27.5157
2 37.1573 23.5386 26.4788
1 35.2567 21.8623 27.6239
1 33.0548 17.4771 25.2177
1 32.5489 16.187 24.5528
1 31.5436 15.4609 25.1759
2 31.1694 15.8028 26.0951
1 30.9381 14.3343 24.591
2 30.2704 13.7261 25.1593
1 31.3759 13.8604 23.3609
2 30.9315 12.938 22.9487
1 32.4041 14.5171 22.691
1 32.963 15.7785 23.2475
2 33.7233 16.208 22.6801
1 32.9075 13.8531 21.471
3 -0.628118 13.8555 26.3244
3 -0.954341 12.8924 28.3309
3 -0.701203 12.7741 25.2195
3 -1.01944 10.8666 26.3433
3 39.7902 11.8743 24.7181
3 39.1992 11.1022 26.6467
3 39.7551 14.2721 27.272
3 39.0445 12.3071 27.9274
3 5.06907 20.9103 24.3718
3 6.16472 21.4247 26.2652
3 4.53294 17.527 25.1559
3 6.50368 18.1161 26.0423
3 3.22871 17.6766 26.2105
3 4.35608 18.0548 28.0922
3 2.69846 20.7747 26.8243
3 4.73477 21.2934 27.5112
3 5.05081 14.4942 18.1882
3 6.03756 12.5588 17.8057
3 2.78633 12.0093 18.1777
3 4.72349 11.0688 17.7402
3 3.19455 12.6469 21.5273
3 4.39777 10.8381 21.1859
3 4.4911 13.906 21.3491
3 6.37563 12.727 21.084
3 -1.09785 27.3494 24.578
3 -0.430916 28.0404 26.5178
3 -0.938056 24.7516 26.7502
3 -0.402813 26.6927 27.6959
3 39.3922 25.3033 26.2093
3 39.8272 26.2074 28.1883
3 39.2877 26.4726 25.1425
3 39.7639 28.4152 26.1605
3 35.5787 21.5392 26.4569
3 34.5116 21.0973 28.3352
3 36.0144 18.2993 26.9884
3 34.0514 17.7301 27.7529
3 33.8299 18.2997 24.5637
3 32.8024 17.7155 26.4834
3 34.3072 21.5102 25.168
3 32.3513 21.1139 26.1724
3 3.1743 26.4444 17.5533
3 4.43777 28.2029 17.68
3 4.39467 25.0597 17.6205
3 6.19268 26.353 17.705
3 5.11452 24.7496 20.6469
3 5.9748 26.6831 21.2568
3 2.69083 27.0722 20.8396
3 4.61094 28.1459 21.2749
3 40.0228 13.4953 23.9707
3 3.31008 20.3704 23.8185
3 1.94443 14.1704 18.8681
3 -1.36354 25.4645 23.6371
3 36.9075 19.4121 24.3562
3 2.11971 25.403 20.4576
4 40.9795 13.1322 25.8394
4 41.0403 11.2086 27.9973
4 3.89778 19.6045 25.6272
4 6.08753 19.5058 27.5507
4 3.75973 13.3318 19.4768
4 5.96685 11.1641 19.533
4 -2.21634 25.805 25.5798
4 -2.31458 27.8208 27.7498
4 35.2103 19.5763 25.5107
4 32.899 19.6675 27.7549
4 3.89008 25.9486 19.4988
4 5.98114 27.9799 19.3538
2 2.75104 21.1711 23.8473
2 3.38687 20.0019 22.918
2 37.2834 19.777 15.3171
2 36.9313 21.2977 14.8426
2 37.5528 13.4515 19.6626
2 37.0184 14.8361 20.4114
2 -1.86426 13.7133 16.1183
2 -1.58834 15.043 15.3091
2 2.1049 24.8965 21.3098
2 1.36524 25.3225 19.8872
2 40.903 23.7989 15.3209
2 40.645 22.8863 13.9427
2 1.28467 19.1296 14.3502
2 2.23036 18.3662 15.3938
2 -0.582762 24.9324 23.5487
2 -1.84412 25.728 22.8645
2 36.1006 24.0109 17.7719
2 35.9188 23.212 19.2484
2 36.9118 19.806 23.4708
2 37.7314 19.5084 24.8524
2 1.90083 15.1065 18.6171
2 1.15875 13.725 19.2105
2 39.2453 14.1047 23.9707
2 40.5786 13.4363 23.1572
1 27.6312 -0.287503 25.3047
1 27.9735 1.09754 24.7331
1 28.837 1.91117 25.4933
2 29.2308 1.56914 26.4659
1 29.2005 3.16728 25.1219
2 29.6625 3.87049 25.774
1 28.7786 3.67617 23.8919
2 29.1126 4.64877 23.6163
1 27.9239 2.94728 23.0309
1 27.545 1.63211 23.4586
2 26.82 1.06462 22.8316
1 27.413 3.53815 21.6895
1 25.273 -0.264693 27.671
1 24.7023 1.07142 28.1242
1 25.4477 1.77551 29.077
2 26.3499 1.37963 29.5128
1 24.9741 2.9836 29.5872
2 25.6191 3.44228 30.2966
1 23.7911 3.56418 29.0958
2 23.6177 4.54944 29.3876
1 22.989 2.94155 28.1329
1 23.3967 1.61181 27.7221
2 22.7834 1.00425 27.1075
1 21.6269 3.55036 27.6773
1 25.303 39.121 27.5238
1 24.6156 37.8851 28.0503
1 24.9714 37.4355 29.3476
2 25.9556 37.6635 29.8334
1 24.1968 36.4631 29.9659
2 24.5927 35.9656 30.8891
1 23.0966 35.8874 29.3547
2 22.5476 35.0838 29.8472
1 22.7175 36.3125 28.023
1 23.508 37.3274 27.3984
2 23.0867 37.7144 26.4514
1 21.5541 35.5427 27.3559
1 27.5503 39.1429 25.2024
1 28.1299 38.0802 24.3728
1 29.4749 37.7633 24.5371
2 30.0755 38.3573 25.1923
1 30.0818 36.8663 23.7356
2 31.1592 36.6664 23.9017
1 29.3444 36.1372 22.7715
2 29.9134 35.4545 22.1182
1 28.0008 36.3845 22.5336
1 27.4017 37.4051 23.3043
2 26.4034 37.6315 23.0059
1 27.3358 35.6324 21.3762
1 25.2875 5.7225 17.221
1 24.5059 6.44492 16.165
1 24.9931 7.63404 15.7085
2 25.9455 8.06602 16.1012
1 24.3635 8.33138 14.6597
2 24.7623 9.24531 14.3321
1 23.275 7.69288 13.9524
2 22.9838 8.18296 13.051
1 22.6911 6.49097 14.4236
1 23.3857 5.85752 15.4988
2 23.0352 4.90885 15.9561
1 21.5291 5.85777 13.6662
1 25.3055 5.98769 21.5597
1 24.7858 6.31503 22.9307
1 25.6395 6.99265 23.8399
2 26.6143 7.2969 23.505
1 25.2968 7.32497 25.1628
2 25.9654 7.7628 25.8997
1 23.97 7.15635 25.5992
2 23.7642 7.35576 26.5807
1 23.0539 6.40402 24.7747
1 23.4791 5.98875 23.4319
2 22.754 5.51812 22.745
1 21.6734 6.09307 25.3673
1 27.4641 3.74793 17.2403
1 28.1123 2.96193 16.149
1 29.4598 3.21414 15.7867
2 29.9428 4.12826 16.1999
1 30.0825 2.45513 14.7612
2 31.1606 2.70101 14.489
1 29.4263 1.38683 14.1432
2 29.9928 0.774404 13.444
1 28.1209 1.11061 14.4528
1 27.4715 1.92203 15.4293
2 26.4331 1.6585 15.6513
1 27.5025 -0.128961 13.7503
1 17.3562 5.86989 25.5005
1 16.1697 6.49548 24.767
1 15.5355 7.6912 25.3578
2 15.9682 8.05301 26.3292
1 14.3967 8.17994 24.8245
2 13.9138 9.10197 25.2787
1 13.7886 7.66187 23.6545
2 12.9385 8.15895 23.1751
1 14.4103 6.59919 22.96
1 15.6109 6.05571 23.5185
2 16.0871 5.19313 23.0938
1 13.7474 6.02114 21.7067
1 17.523 3.54332 27.5872
1 16.3376 2.78355 28.191
1 15.8844 3.22229 29.4476
2 16.3119 4.11712 29.9155
1 14.8104 2.67109 30.0729
2 14.4531 2.98682 31.0434
1 14.2264 1.50095 29.5559
2 13.5561 0.917289 30.1982
1 14.604 1.03741 28.258
1 15.6151 1.75336 27.5506
2 15.9738 1.35279 26.598
1 13.8504 -0.128529 27.6006
1 25.3031 -0.0754026 11.4148
1 24.5074 1.06421 10.7762
1 24.9151 1.57549 9.59166
2 25.7222 1.14312 9.12333
1 24.254 2.57957 8.93923
2 24.4916 2.88317 7.90644
1 23.2356 3.26357 9.59569
2 22.7189 4.04398 9.08178
1 22.7707 2.9182 10.8306
1 23.4283 1.78761 11.4521
2 23.0564 1.35216 12.3131
1 21.6537 3.67902 11.4811
1 27.8112 39.3989 13.693
1 28.2055 38.0431 14.1966
1 29.1347 37.2686 13.4396
2 29.6065 37.6553 12.5894
1 29.5037 36.0079 13.8319
2 30.1678 35.4317 13.1722
1 28.9594 35.4497 15.0134
2 29.1277 34.4087 15.2213
1 28.1784 36.2007 15.9037
1 27.838 37.5393 15.5022
2 27.191 38.149 16.1758
1 27.674 35.5041 17.1709
1 25.3541 33.2666 21.5175
1 24.626 32.7568 22.746
1 25.1192 31.5319 23.2876
2 25.9202 30.9772 22.8973
1 24.4673 30.9146 24.3971
2 24.9244 30.0528 24.7943
1 23.3565 31.477 24.9571
2 22.8665 31.0179 25.8233
1 22.7718 32.6858 24.552
1 23.4349 33.3283 23.3972
2 23.033 34.2564 23.0626
1 21.5755 33.2 25.2608
3 27.0432 -1.17097 24.5719
3 27.8028 -0.572479 26.5576
3 24.5634 -1.02204 26.9166
3 26.488 -0.647762 27.9157
3 25.1892 39.4531 26.2982
3 26.2646 39.6711 28.2341
3 26.2775 39.4155 25.1029
3 28.2425 39.6979 26.1399
3 24.9111 4.54308 17.626
3 26.2872 6.26562 17.8536
3 24.5561 5.48032 20.6626
3 26.571 6.12756 21.3456
3 26.8251 2.81652 20.8021
3 27.6866 4.7984 21.3776
3 26.3009 3.40127 17.656
3 28.1105 4.70127 17.8191
3 17.7689 4.71439 25.1791
3 17.9638 6.58644 26.4267
3 17.7393 3.45227 26.3131
3 18.1536 4.39012 28.2867
3 20.7881 2.90182 26.937
3 21.4201 4.81623 27.8583
3 20.8453 5.3697 24.6904
3 21.4139 6.31742 26.5956
3 24.9767 -0.544232 12.5644
3 26.3525 -0.582963 10.8153
3 26.2891 -0.510115 13.9998
3 28.1863 -0.705195 12.8213
3 27.1521 40.2262 14.4298
3 27.8958 39.6085 12.4299
3 24.8108 40.0715 12.084
3 26.7145 39.6525 11.0371
3 27.0751 36.245 18.0668
3 27.7653 34.2435 17.348
3 26.0568 35.7198 21.1974
3 28.0537 34.8494 20.6138
3 25.1585 34.4799 21.1294
3 26.1027 32.5131 20.7568
3 24.4555 34.1759 17.8598
3 26.3731 33.1081 17.3953
3 18.2564 2.91567 11.8574
3 17.51 4.82972 11.0647
3 18.1344 5.25599 14.3687
3 17.4864 6.06684 12.395
3 21.1429 4.67784 13.9157
3 20.9271 6.50585 12.7259
3 21.3406 3.51502 12.7413
3 21 4.60716 10.7457
3 23.8947 -1.37354 25.1631
3 25.1993 2.25471 20.5343
3 20.285 2.89154 23.8593
3 24.0952 41.0137 14.8063
3 23.6641 35.7304 18.3068
3 19.1571 2.1581 14.7744
4 25.7205 -2.27007 25.7212
4 27.849 41.1986 27.8441
4 25.6918 4.09738 19.5589
4 27.8168 6.13704 19.5025
4 19.7379 3.94262 25.6031
4 19.5377 6.11889 27.9227
4 25.6144 41.2702 13.519
4 27.8526 -2.19844 11.184
4 25.5619 35.317 19.1829
4 27.6165 33.0929 19.2759
4 19.3625 3.75868 13.4439
4 19.3605 6.08639 11.195
1 11.3771 39.5292 13.6024
1 10.8231 38.249 14.2253
1 9.57007 37.8773 13.7984
2 9.04381 38.3311 12.9481
1 8.96344 36.7597 14.348
2 7.987 36.4741 13.9912
1 9.49991 36.0158 15.4322
2 8.96356 35.2138 15.8889
1 10.8226 36.3097 15.8913
1 11.4382 37.4552 15.2844
2 12.3481 37.8304 15.7157
1 11.329 35.6714 17.1754
1 13.7166 39.6179 11.1249
1 14.2956 38.318 10.6179
1 13.7524 37.7123 9.45454
2 12.8017 38.0981 9.11421
1 14.4488 36.6644 8.77523
2 14.0513 36.3181 7.81269
1 15.5481 36.0284 9.32737
2 15.8622 35.1547 8.87197
1 16.1693 36.5685 10.4816
1 15.5881 37.8256 11.0497
2 16.1023 38.3602 11.8028
1 17.3215 35.8102 11.1378
1 13.6663 -0.113727 11.2854
1 14.3138 1.09539 10.6465
1 13.6007 1.84237 9.718
2 12.6906 1.5124 9.28502
1 14.0548 3.10315 9.3389
2 13.499 3.67467 8.54404
1 15.2705 3.63466 9.87788
2 15.536 4.63084 9.60196
1 16.0987 2.87444 10.7729
1 15.5379 1.65188 11.2023
2 16.0436 1.16652 12.0494
1 17.2982 3.55856 11.3261
1 11.49 -0.0109916 13.7072
1 10.8343 1.16962 14.4432
1 9.65596 1.79223 13.9316
2 9.13749 1.39524 13.0259
1 9.07789 2.93988 14.5857
2 8.22671 3.37028 14.1422
1 9.66902 3.50751 15.7014
2 9.22504 4.3977 16.1318
1 10.8369 2.98635 16.212
1 11.3781 1.79332 15.6195
2 12.2938 1.40632 15.9765
1 11.439 3.58201 17.5081
1 13.6223 33.1863 21.4765
1 14.142 32.7162 22.8149
1 13.3203 32.0315 23.7026
2 12.3434 31.6767 23.4168
1 13.6781 31.7427 25.0464
2 12.9571 31.2229 25.7401
1 15.0072 32.074 25.4402
2 15.3456 31.8045 26.4226
1 15.8818 32.7369 24.5894
1 15.4579 33.0411 23.248
2 16.1042 33.534 22.6403