2232
 Atoms. Timestep: 0
1 37.7792 34.7592 7.15266
1 36.602 35.3608 7.76712
1 35.8681 34.6159 8.73087
2 36.2469 33.7145 9.1702
1 34.6342 35.0246 9.15605
2 34.0825 34.4413 9.91025
1 34.0479 36.1967 8.55213
2 33.1059 36.5868 8.92529
1 34.7445 36.9123 7.5479
1 36.0369 36.5108 7.20105
2 36.5974 37.1249 6.48703
1 34.1488 38.0713 6.92175
1 38.463 32.08 4.00639
1 37.6926 31.2637 3.03591
1 37.7617 29.8785 3.03204
2 38.3584 29.2737 3.61561
1 36.9068 29.1647 2.24458
2 36.998 28.0824 2.27063
1 35.9546 29.7506 1.44562
2 35.3283 29.1515 0.833838
1 35.8276 31.1683 1.47634
1 36.7217 31.8951 2.25697
2 36.6645 32.98 2.33483
1 34.8237 31.9089 0.661297
1 0.673089 32.4139 4.35235
1 1.75472 31.7379 3.58301
1 1.86407 30.3522 3.72691
2 1.11689 29.7713 4.31358
1 2.88235 29.6285 3.0779
2 2.86085 28.5467 3.30925
1 3.72793 30.2628 2.17931
2 4.50006 29.6975 1.67211
1 3.55799 31.6681 1.93545
1 2.52265 32.3703 2.62014
2 2.34915 33.3765 2.31231
1 4.31712 32.2998 0.862504
1 1.02696 34.4283 6.88526
1 2.11545 35.1676 7.53199
1 2.51212 34.8002 8.82455
2 2.13877 33.9115 9.33551
1 3.55569 35.5186 9.49745
2 3.94165 35.1427 10.3849
1 4.11726 36.6919 8.90896
2 4.8104 37.2904 9.43668
1 3.78701 37.0185 7.57688
1 2.80703 36.2641 6.92834
2 2.4768 36.6264 6.0328
1 4.45974 38.1608 6.89247
1 32.0545 1.05216 4.45333
1 31.3126 1.96599 3.51937
1 29.8966 2.00088 3.55815
2 29.3952 1.41512 4.30593
1 29.165 2.92812 2.80043
2 28.0867 2.91983 2.73765
1 29.8439 3.79093 1.92341
2 29.2856 4.46523 1.22878
1 31.2786 3.75898 1.84704
1 32.03 2.9015 2.70662
2 33.0844 3.00218 2.74805
1 31.9825 4.53571 0.755115
1 31.8608 38.3589 4.3887
1 31.2136 37.2144 3.71707
1 30.0181 36.7148 4.20835
2 29.5623 37.1914 5.08759
1 29.484 35.4871 3.69303
2 28.66 35.1077 4.19381
1 30.0524 34.9041 2.55148
2 29.6756 34.0706 2.03336
1 31.1866 35.3862 2.01144
1 31.7189 36.6671 2.56638
2 32.5815 37.1602 2.11963
1 31.9295 34.6729 0.950346
1 34.2993 1.08291 6.93454
1 34.9931 2.14123 7.71366
1 34.4187 2.67972 8.82666
2 33.5268 2.30846 9.29289
1 34.9568 3.85387 9.43865
2 34.4922 4.2553 10.3384
1 36.0037 4.5022 8.84839
2 36.4022 5.40483 9.29694
1 36.6098 4.01901 7.6855
1 36.0653 2.8461 7.10241
2 36.5295 2.44262 6.21479
1 37.8192 4.68081 7.06189
1 32.3942 34.2303 37.6905
1 31.932 34.6613 36.379
1 31.3069 33.6849 35.5492
2 31.1063 32.6761 35.8466
1 31.1332 34.0368 34.2033
2 30.717 33.3671 33.514
1 31.4202 35.3317 33.691
2 31.07 35.6693 32.7331
1 31.9108 36.3405 34.5864
1 32.2072 35.986 35.9072
2 32.6838 36.6515 36.5836
1 32.1671 37.6705 34.1088
1 34.8292 32.2477 38.3416
1 35.6294 31.5029 37.3689
1 35.6622 30.0957 37.456
2 35.0304 29.5316 38.0607
1 36.5417 29.3527 36.6424
2 36.404 28.2849 36.5746
1 37.4451 30.039 35.8159
2 38.1379 29.4235 35.2202
1 37.5294 31.4159 35.8361
1 36.5706 32.1511 36.5772
2 36.5415 33.2594 36.5727
1 38.4378 32.0636 34.8805
1 37.8526 7.01074 4.62447
1 36.8125 7.71751 3.81508
1 36.2822 8.93031 4.24939
2 36.7616 9.4877 5.10999
1 35.2095 9.51005 3.54438
2 34.8181 10.4875 3.95378
1 34.5632 8.86272 2.55875
2 33.8153 9.3598 2.05886
1 35.0438 7.60884 2.14578
1 36.1664 7.01831 2.7652
2 36.5043 6.05531 2.39223
1 34.3657 6.91163 1.00303
1 0.966364 4.57894 6.90563
1 2.16233 3.94401 7.51395
1 2.66399 4.29842 8.79602
2 2.20091 5.16435 9.33829
1 3.77296 3.67901 9.31213
2 4.18452 3.95354 10.25
1 4.46648 2.72527 8.58965
2 5.39207 2.23977 8.90528
1 3.90959 2.22404 7.41948
1 2.8324 2.8372 6.87332
2 2.34526 2.38752 5.94726
1 4.55778 1.11231 6.75594
1 6.60393 37.9315 4.65732
1 7.2085 36.6985 4.03374
1 8.31175 36.0617 4.60557
2 8.68538 36.4959 5.46342
1 8.81573 34.9039 4.0462
2 9.69493 34.4545 4.40744
1 8.29809 34.4193 2.87355
2 8.78431 33.5302 2.47518
1 7.20976 35.0096 2.31886
1 6.65372 36.1735 2.82639
2 5.98228 36.7333 2.21147
1 6.73662 34.3724 1.02679
3 38.5005 35.4188 6.32384
3 38.0079 33.5115 7.33508
3 38.373 33.3311 3.94932
3 39.1869 31.5953 4.91084
3 0.541921 33.6946 4.36683
3 -0.0470152 31.7586 5.14496
3 0.674843 34.7515 5.67126
3 0.381458 33.4911 7.47893
3 33.3395 1.04775 4.48755
3 31.3858 0.244646 5.14717
3 32.6559 39.1277 3.75876
3 31.6676 38.4018 5.6389
3 34.855 38.9666 6.35549
3 32.8913 38.1875 6.925
3 34.3596 1.01351 5.65997
3 33.6409 0.216999 7.55589
3 33.4809 34.67 38.1024
3 31.8374 33.2587 38.3177
3 34.8417 33.5247 38.3789
3 33.9745 31.6965 39.0631
3 34.9579 33.17 0.477445
3 33.9196 31.2834 0.041012
3 32.6072 35.4053 0.0909149
3 31.894 33.3982 0.902125
3 38.5227 6.09583 4.05069
3 38.0901 7.2468 5.86894
3 38.5772 3.97307 6.31735
3 38.041 5.91885 7.21149
3 0.748982 4.39848 5.65217
3 0.204364 5.34379 7.64064
3 0.74523 5.47751 4.45504
3 0.0616661 7.49151 5.29417
3 3.77693 0.279455 6.21049
3 5.80844 0.963598 6.8282
3 4.2009 38.4237 5.69756
3 5.2586 38.9752 7.48975
3 5.38253 38.2317 4.42034
3 7.34803 38.7421 5.30202
3 6.03743 0.174788 3.80574
3 6.838 0.856708 5.68048
3 34.9868 6.31881 38.5486
3 32.9382 6.95925 38.0038
3 33.1192 3.85731 38.5546
3 31.9307 5.66952 38.0956
3 33.2297 4.49117 0.677212
3 31.2755 5.25207 -0.0459201
3 34.5092 5.67091 0.804159
3 33.5713 7.57823 0.211758
3 39.2553 35.9959 3.35376
3 35.6403 39.7818 3.50342
3 35.5099 36.1256 -0.682492
3 39.5137 3.09017 3.36926
3 3.0119 -0.537019 3.16672
3 36.0539 3.54507 39.7259
4 39.6576 34.6583 4.81721
4 39.7269 32.3081 6.84777
4 34.0072 -0.898913 4.85497
4 31.9833 -0.970777 6.77461
4 34.2013 34.5853 -0.908507
4 32.2294 32.1913 -0.787456
4 39.771 4.55985 4.77381
4 -1.05722 6.90902 6.93409
4 4.41923 -0.863986 4.6273
4 6.72382 -0.912052 6.84861
4 34.3149 4.79255 -1.09986
4 32.0562 6.90378 39.9015
1 0.82511 4.31919 32.0972
1 1.98055 3.58739 31.5136
1 2.44674 3.92354 30.2403
2 2.01371 4.69649 29.6995
1 3.60858 3.40593 29.7181
2 3.99669 3.76058 28.7514
1 4.20941 2.35604 30.3544
2 5.05367 1.88118 29.8667
1 3.81651 1.98448 31.6572
1 2.68493 2.6003 32.2024
2 2.3851 2.39204 33.2491
1 4.59992 0.964396 32.3579
1 0.908988 6.62915 34.499
1 1.9229 7.46767 35.2148
1 2.03203 8.89645 35.0074
2 1.42174 9.44456 34.3012
1 3.05515 9.57632 35.6365
2 3.26667 10.5922 35.4979
1 3.8633 8.94667 36.6096
2 4.38477 9.50687 37.3313
1 3.78949 7.53947 36.8425
1 2.81642 6.8104 36.0705
2 2.7985 5.75246 36.1127
1 4.59495 6.95276 37.8716
1 37.6747 6.68562 34.107
1 36.3985 7.22861 34.6537
1 35.5853 8.01329 33.8093
2 35.8432 8.25385 32.7948
1 34.3768 8.49995 34.3343
2 33.8181 9.22957 33.7165
1 33.9719 8.13315 35.6153
2 32.9634 8.44632 35.8995
1 34.7334 7.35245 36.433
1 36.0264 6.94837 35.9762
2 36.5856 6.34599 36.5578
1 34.2108 6.97549 37.7882
1 38.0542 3.99875 31.9304
1 37.1589 3.18388 31.2457
1 36.928 3.51035 29.8748
2 37.5728 4.26384 29.3289
1 36.0711 2.69308 29.1646
2 35.955 2.86181 28.0921
1 35.1864 1.857 29.8959
2 34.4365 1.35592 29.2703
1 35.3604 1.59816 31.2362
1 36.4737 2.14142 31.923
2 36.6549 1.87135 32.9322
1 34.5194 0.547223 31.9637
1 7.23962 38.147 34.5509
1 7.9372 37.0075 35.1818
1 9.0508 36.3726 34.5696
2 9.50929 36.7823 33.7009
1 9.55789 35.1847 35.0816
2 10.3723 34.748 34.544
1 8.95826 34.549 36.145
2 9.31441 33.6106 36.5631
1 7.88806 35.1382 36.763
1 7.34358 36.3835 36.3164
2 6.50672 36.8065 36.9137
1 7.14163 34.4872 37.9508
1 7.08919 0.860491 34.5959
1 7.7044 2.02017 35.3236
1 8.95088 2.44216 34.9701
2 9.40133 2.12712 34.005
1 9.5965 3.40372 35.7552
2 10.5867 3.7182 35.5107
1 8.97478 4.08784 36.7795
2 9.59916 4.88678 37.2132
1 7.62409 3.76317 37.1057
1 7.02302 2.68921 36.3778
2 6.00569 2.38582 36.65
1 6.94259 4.50356 38.2296
1 4.89595 37.9758 32.1242
1 4.3465 36.7162 31.5856
1 5.09428 35.9806 30.6503
2 5.94506 36.4038 30.234
1 4.65519 34.7642 30.1705
2 5.17906 34.263 29.3681
1 3.46104 34.19 30.6112
2 3.17648 33.2807 30.1183
1 2.76627 34.8071 31.6826
1 3.24041 36.094 32.1777
2 2.74042 36.6134 32.9614
1 1.47233 34.2788 32.2302
1 6.64472 4.6451 1.00872
1 7.25982 4.00499 2.17344
1 8.21352 4.7049 2.99024
2 8.59724 5.6783 2.65715
1 8.75942 4.103 4.1605
2 9.43495 4.67 4.74081
1 8.23962 2.9238 4.60693
2 8.45321 2.65147 5.66532
1 7.37515 2.18273 3.80976
1 6.93749 2.6689 2.588
2 6.28889 2.07862 2.00547
1 6.77517 0.982077 4.40422
1 4.38463 7.07103 0.882115
1 3.75435 7.61887 2.11685
1 4.25244 8.76689 2.69402
2 4.98862 9.30585 2.16085
1 3.61424 9.31281 3.82068
2 3.88727 10.2628 4.19741
1 2.55479 8.6911 4.43932
2 2.10512 9.11605 5.30656
1 2.07422 7.40808 3.91447
1 2.68662 6.88857 2.76238
2 2.23072 6.034 2.43516
1 0.914815 6.76555 4.57891
1 0.649466 31.6729 35.1174
1 1.29894 30.8627 36.207
1 1.45337 29.4522 36.1068
2 0.958757 28.8873 35.3125
1 2.33073 28.7899 37.0123
2 2.56388 27.6603 36.9152
1 3.07355 29.5585 37.9026
2 3.7869 29.0556 38.4941
1 2.98819 30.9235 37.9862
1 2.0245 31.5842 37.182
2 1.97409 32.6671 37.2169
1 3.89581 31.7558 38.7874
1 38.2804 34.2814 32.1642
1 37.12 34.9263 31.4803
1 36.6319 34.397 30.2699
2 37.0489 33.5669 29.7019
1 35.5213 35.0232 29.6648
2 35.1382 34.5983 28.7475
1 34.9509 36.189 30.2634
2 34.0908 36.7014 29.7706
1 35.4097 36.6663 31.506
1 36.5074 36.0526 32.0765
2 36.866 36.4318 33.0283
1 34.7722 37.8556 32.1031
1 32.2585 0.752617 34.3566
1 31.621 1.93382 34.9957
1 30.4467 2.46493 34.4568
2 30.1103 1.99583 33.4889
1 29.9473 3.61139 34.9581
2 29.1416 4.05151 34.4376
1 30.5463 4.31066 35.9901
2 29.9968 5.18527 36.3775
1 31.6566 3.75788 36.63
1 32.1918 2.56159 36.1197
2 33.0671 2.07438 36.5793
1 32.2566 4.46537 37.8051
3 0.579325 4.20303 33.3331
3 0.080183 5.04828 31.3957
3 0.785433 5.38059 34.6646
3 0.180691 7.17673 33.6406
3 38.6333 6.35718 34.881
3 37.8044 6.52866 32.8902
3 38.725 3.4619 32.9098
3 38.1833 5.26325 31.6958
3 6.43075 38.8416 35.257
3 7.31741 38.2934 33.3159
3 5.84574 0.689699 34.6398
3 7.84501 0.143522 33.8712
3 4.5078 0.774716 33.5988
3 5.40734 0.187103 31.6931
3 4.17256 38.7567 32.8341
3 6.15418 38.1419 32.1704
3 5.98078 3.97712 0.145592
3 6.78558 5.88927 0.857636
3 3.68318 6.60143 -0.0208935
3 5.69658 7.05006 0.73968
3 4.54086 5.70223 38.1159
3 5.32314 7.67494 38.6572
3 5.66497 4.54987 38.287
3 7.59519 5.28926 39.0167
3 0.612874 32.9161 35.2914
3 -0.120597 31.1299 34.2457
3 0.635664 34.9997 32.8783
3 1.29109 33.056 32.0029
3 38.5177 34.563 33.409
3 38.9267 33.3237 31.6021
3 38.4164 33.3431 34.6947
3 39.2512 31.3822 34.181
3 35.3402 38.5322 32.9942
3 33.5117 38.0921 31.8714
3 34.5644 0.523626 33.2449
3 33.6283 -0.0846605 31.3206
3 33.4975 0.617354 34.4124
3 31.5148 -0.0747738 33.7261
3 32.5554 38.5697 34.9196
3 32.25 37.847 32.8676
3 4.22087 33.5638 0.664965
3 5.12718 31.5587 0.163884
3 5.55911 34.6959 0.691497
3 7.45019 33.4691 0.417247
3 6.27599 35.1713 38.6126
3 7.28092 33.2441 38.2
3 3.69667 33.0077 38.8834
3 4.97439 31.2652 39.3195
3 39.276 3.05079 35.6596
3 3.23049 39.7893 35.7605
3 2.96304 3.74873 -0.7234
3 -0.670681 35.9228 35.7229
3 35.4311 39.5022 36.0094
3 3.26376 35.9786 39.3378
4 39.7969 4.61308 34.3868
4 39.7466 6.60151 32.0703
4 4.86381 39.9285 34.332
4 7.05474 -0.991115 32.3007
4 4.58322 4.94947 -0.977245
4 6.81381 6.93951 -1.03446
4 -0.603131 34.3134 34.4201
4 -0.584408 32.0257 32.3423
4 34.2912 39.7933 34.2972
4 32.1345 39.8264 32.1041
4 4.7052 34.5284 39.8677
4 6.85206 32.1018 -1.06905
2 2.49807 39.1593 35.6587
2 3.24679 -0.833438 36.6028
2 35.5333 -1.03128 2.58125
2 36.4321 39.3482 3.82568
2 36.6799 3.70925 39.0321
2 36.1069 2.71985 -0.762473
2 39.4479 2.14372 3.60334
2 39.3777 3.36139 2.39887
2 3.4891 36.8873 39.6035
2 2.63676 35.766 38.6167
2 38.6798 35.7816 2.60459
2 39.7004 36.836 3.53501
2 3.16106 39.8677 2.45963
2 2.71362 0.35767 2.97465
2 0.111484 36.38 36.0926
2 39.4252 36.101 36.0917
2 35.3178 37.0491 -0.787547
2 36.4327 35.891 -0.4509
2 35.7455 -0.906145 36.5415
2 35.469 38.6126 36.3273
2 2.05036 4.00021 -0.533107
2 3.23505 2.97769 -0.269509
2 39.7697 2.2212 35.5722
2 38.8515 3.23202 36.5137
1 37.531 25.1098 11.4104
1 36.3162 24.5566 10.8238
1 35.36 25.3534 10.088
2 35.6571 26.3931 9.79167
1 34.1257 24.896 9.65217
2 33.4949 25.5251 9.12486
1 33.7404 23.5745 10.0254
2 32.7737 23.2577 9.80161
1 34.5401 22.852 10.978
1 35.8709 23.2991 11.2308
2 36.5106 22.768 11.9939
1 34.0189 21.5982 11.5238
1 37.6544 27.5161 13.8093
1 36.4385 28.0688 14.5413
1 35.7586 29.1373 13.9281
2 36.2465 29.7364 13.1754
1 34.5342 29.5672 14.3848
2 34.1922 30.4901 13.9278
1 33.9909 28.974 15.5448
2 33.1354 29.3868 15.8716
1 34.5997 27.8788 16.154
1 35.8313 27.4388 15.6464
2 36.3272 26.5994 16.0965
1 34.0104 27.2238 17.4157
1 0.806687 27.3292 13.788
1 1.8485 27.9359 14.6787
1 2.37746 29.194 14.2061
2 1.90913 29.7507 13.3948
1 3.42206 29.7854 14.8194
2 3.82393 30.6848 14.4113
1 4.02355 29.1838 15.9707
2 4.86515 29.6666 16.4455
1 3.48122 27.9614 16.4752
1 2.46466 27.3264 15.7903
2 2.13434 26.3521 16.1233
1 4.21929 27.3123 17.5893
1 0.647871 24.9813 11.5023
1 1.80506 24.2631 10.8821
1 2.05451 24.4844 9.51981
2 1.41258 25.1443 8.94402
1 2.88006 23.7123 8.82215
2 2.99628 23.756 7.74655
1 3.63615 22.7485 9.46066
2 4.34804 22.1381 8.83593
1 3.54565 22.5889 10.8534
1 2.52232 23.2562 11.6067
2 2.34839 23.0415 12.701
1 4.3421 21.5015 11.5572
1 32.2554 17.4271 14.0235
1 31.661 16.1261 14.5446
1 30.5165 15.6145 13.9667
2 30.0233 15.9276 13.0815
1 29.8706 14.5126 14.5567
2 28.9214 14.1809 14.163
1 30.3937 13.9888 15.7464
2 29.8622 13.1633 16.1938
1 31.525 14.5446 16.3532
1 32.2069 15.6044 15.7226
2 33.2416 15.9412 16.0632
1 32.0792 13.8478 17.5444
1 32.0887 21.1857 14.2847
1 31.314 22.133 15.0934
1 30.0084 22.3548 14.7441
2 29.5214 21.7987 13.9839
1 29.255 23.3348 15.4186
2 28.1877 23.452 15.144
1 29.8819 24.1789 16.3312
2 29.2494 24.8835 16.745
1 31.1783 23.9438 16.7644
1 31.9423 22.9767 16.0555
2 33.0452 22.7704 16.2285
1 31.7927 24.7135 17.8722
1 34.4904 17.4981 11.6301
1 35.3089 16.4661 10.9736
1 35.012 16.1096 9.61109
2 34.195 16.6679 9.14249
1 35.5621 14.9754 9.05555
2 35.2492 14.5872 8.11229
1 36.625 14.3466 9.75483
2 37.062 13.5125 9.21163
1 37.0223 14.7123 11.0318
1 36.4041 15.8251 11.6497
2 36.7174 16.0902 12.6673
1 38.0335 13.8906 11.7195
1 31.6217 24.5389 21.0545
1 30.8726 23.5722 21.8466
1 29.4716 23.4459 21.7608
2 28.8329 24.0563 21.1399
1 28.8064 22.5552 22.6057
2 27.7102 22.759 22.7935
1 29.4868 21.7259 23.4296
2 28.9977 20.9305 24.0142
1 30.8728 21.7489 23.5084
1 31.5635 22.6964 22.7305
2 32.6714 22.6863 22.7598
1 31.6552 20.9102 24.4081
1 33.976 27.6443 21.6576
1 34.5905 28.124 22.8592
1 34.1667 29.3452 23.3996
2 33.3021 29.786 23.0473
1 34.8634 29.9302 24.3908
2 34.6212 30.9229 24.7516
1 36.0719 29.4069 24.834
2 36.6503 29.933 25.6305
1 36.458 28.1044 24.4771
1 35.7158 27.4577 23.4096
2 36.1264 26.5205 23.0058
1 37.6404 27.4514 25.1449
1 37.7911 11.3054 13.7627
1 36.5529 10.7637 14.3306
1 35.8336 9.8062 13.6202
2 36.1494 9.46333 12.6228
1 34.5234 9.38613 14.0588
2 33.8751 8.71256 13.4101
1 33.9868 9.82293 15.2426
2 32.9253 9.61519 15.4803
1 34.7503 10.7526 16.0234
1 36.0812 11.2192 15.6099
2 36.5478 12.0498 16.1728
1 34.172 11.2501 17.3205
1 1.06172 13.7173 11.573
1 2.19053 14.4085 10.9208
1 2.71796 13.9613 9.69647
2 2.31654 13.1471 9.09295
1 3.82529 14.6184 9.1026
2 4.298 14.1843 8.21584
1 4.34081 15.7331 9.74177
2 5.06649 16.344 9.20793
1 3.75805 16.2449 10.9213
1 2.67035 15.5516 11.4481
2 2.23273 16.0289 12.3897
1 4.38354 17.4098 11.6174
1 6.78246 21.5646 13.9528
1 7.4085 22.7521 14.6802
1 8.67066 23.1774 14.2072
2 9.00728 22.9139 13.232
1 9.32815 24.2253 14.8369
2 10.2218 24.6598 14.37
1 8.70155 24.8365 15.9431
2 9.18095 25.6932 16.3403
1 7.47449 24.4126 16.4913
1 6.878 23.3299 15.8373
2 5.90018 22.9928 16.151
1 6.76218 25.1658 17.5683
3 38.2918 24.4123 12.1699
3 37.74 26.3768 11.3316
3 38.6403 27.1173 14.4561
3 37.7448 27.5237 12.505
3 0.55707 26.0669 13.8828
3 0.0261565 28.0301 13.0004
3 0.384389 24.7736 12.7629
3 0.00192696 25.8364 10.7723
3 33.5128 17.6795 14.1153
3 31.5447 18.1714 13.2423
3 32.8829 20.3856 14.8231
3 31.8922 21.1775 13.0001
3 34.7988 20.7217 11.9431
3 32.7832 21.4605 11.7164
3 34.5844 17.5766 12.9462
3 33.7233 18.2642 10.9278
3 32.8842 24.429 20.9398
3 30.9908 25.3623 20.2979
3 34.6944 27.2909 20.6626
3 32.7606 27.3714 21.6295
3 34.2024 25.9529 17.7259
3 33.2025 27.928 18.158
3 33.0818 24.8179 18.0579
3 31.0211 25.3935 18.6552
3 38.6016 11.9497 14.5191
3 37.9453 11.404 12.5151
3 38.844 14.4968 12.5047
3 38.1869 12.6383 11.4581
3 0.837676 13.881 12.7955
3 0.298291 12.9701 10.8613
3 0.95194 12.7255 14.2382
3 0.206866 10.7765 13.4101
3 3.70594 18.2707 12.2251
3 5.65688 17.6455 11.4509
3 4.37452 21.3412 12.8159
3 5.01364 20.6704 10.8202
3 5.54829 21.2861 14.1644
3 7.37963 20.7961 13.1035
3 5.92509 18.1746 14.5124
3 6.8279 17.6007 12.6641
3 34.5492 12.739 21.2507
3 33.7382 10.7998 20.576
3 33.4496 13.944 21.11
3 31.4827 13.1336 20.4564
3 32.9683 14.4581 18.1867
3 31.8853 12.5991 17.7275
3 34.9736 11.77 18.1021
3 32.9064 11.3709 17.4673
3 39.0831 24.1053 15.2063
3 36.1108 20.0389 14.548
3 35.9991 24.6047 20.2916
3 39.8376 14.8325 15.5482
3 3.15385 19.3708 15.0528
3 36.1953 14.4217 18.9799
4 39.5315 25.3061 13.6289
4 39.7452 27.4054 11.4908
4 34.3007 19.517 13.5922
4 32.0249 19.4476 11.6956
4 34.1289 25.5068 19.8055
4 31.7977 27.299 19.7047
4 -0.986322 13.5152 13.939
4 -1.00303 11.5128 11.7132
4 4.65524 19.4634 13.7169
4 6.74799 19.5079 11.5514
4 34.4334 13.501 19.2657
4 32.1435 11.435 19.4541
1 0.880149 13.8153 27.6953
1 2.23772 14.2887 28.173
1 3.00682 13.4613 29.0005
2 2.69629 12.4131 29.2765
1 4.28818 13.8723 29.3966
2 4.86342 13.1669 29.9831
1 4.72476 15.1496 29.0575
2 5.68528 15.4966 29.3727
1 4.01224 15.8809 28.0929
1 2.78756 15.4067 27.5794
2 2.21581 15.8492 26.8152
1 4.60633 17.1911 27.552
1 0.515842 11.0947 24.699
1 1.37875 10.3563 23.7554
1 1.64116 8.97487 23.8225
2 1.05873 8.44429 24.5805
1 2.59094 8.35162 23.1121
2 2.77948 7.25064 23.1845
1 3.37989 9.11089 22.1981
2 4.09942 8.57064 21.5609
1 3.13507 10.5102 22.0536
1 2.17677 11.0933 22.8568
2 2.11712 12.1534 22.8943
1 4.09193 11.2119 21.1585
1 38.1908 11.4372 24.8112
1 37.0858 10.759 24.052
1 36.7672 9.46511 24.3903
2 37.3502 8.90025 25.1116
1 35.6773 8.83368 23.8203
2 35.4999 7.75225 24.016
1 34.9792 9.46156 22.7555
2 34.176 8.90745 22.2475
1 35.3222 10.7579 22.3667
1 36.4105 11.4431 23.0134
2 36.628 12.4836 22.8093
1 34.5158 11.472 21.3416
1 37.4847 13.5114 27.1366
1 36.1158 14.0471 27.5683
1 35.3689 13.4263 28.6438
2 35.7303 12.514 29.0693
1 34.1719 14.0563 29.0631
2 33.5537 13.6524 29.9014
1 33.7572 15.2296 28.5183
2 32.9254 15.7933 28.9242
1 34.5017 15.8561 27.5014
1 35.6616 15.2219 26.9996
2 36.1064 15.6451 26.0632
1 34.0097 17.1268 26.9349
1 6.68953 21.522 25.264
1 7.1975 22.7453 24.615
1 8.0959 23.5042 25.3574
2 8.46355 23.2261 26.3808
1 8.45385 24.7578 24.8612
2 9.3071 25.3027 25.3978
1 7.99315 25.1771 23.6534
2 8.29489 26.2145 23.3853
1 7.17522 24.4452 22.8048
1 6.82068 23.1472 23.2887
2 6.08786 22.5512 22.7378
1 6.65786 25.0608 21.5496
1 6.94763 17.7056 25.0949
1 7.71981 16.6027 24.3692
1 8.82144 16.0092 24.9679
2 9.1398 16.4069 25.8522
1 9.3963 14.8541 24.3564
2 10.3651 14.5412 24.595
1 8.79191 14.2634 23.264
2 9.21892 13.3768 22.85
1 7.62735 14.7763 22.7239
1 7.08807 15.9853 23.2464
2 6.24684 16.5291 22.813
1 6.96984 14.0989 21.6256
1 4.50337 21.5085 27.7236
1 3.9083 22.8155 28.1566
1 4.75106 23.6791 28.8741
2 5.74399 23.3129 29.2696
1 4.31191 25.0136 29.091
2 4.99659 25.6874 29.649
1 3.06305 25.4302 28.677
2 2.8087 26.471 28.7423
1 2.15302 24.596 27.9583
1 2.57509 23.2352 27.7612
2 1.92968 22.5884 27.1049
1 0.940655 25.1852 27.2783
1 6.75203 13.821 17.4985
1 7.37394 14.5279 16.3415
1 8.57262 14.0871 15.8645
2 9.13612 13.2669 16.3161
1 9.10195 14.6637 14.736
2 10.08 14.2273 14.3655
1 8.55586 15.7976 14.0886
2 8.95202 16.2838 13.2071
1 7.4043 16.3185 14.6349
1 6.81176 15.702 15.7685
2 5.9339 16.0583 16.2232
1 6.79272 17.5018 13.9483
1 4.46875 11.5415 17.8046
1 3.75629 10.8053 16.7534
1 3.93933 9.42618 16.6106
2 4.64312 8.94801 17.2686
1 3.2136 8.70519 15.6571
2 3.24968 7.65623 15.5611
1 2.26434 9.36987 14.8456
2 1.74246 8.82194 14.0828
1 2.0913 10.7918 14.9531
1 2.81268 11.4648 15.9217
2 2.67941 12.5682 15.9853
1 0.997999 11.4249 14.1788
1 0.652404 27.5795 24.9699
1 1.82853 28.2362 24.3932
1 2.50957 29.2218 25.1668
2 2.05702 29.7259 26.0135
1 3.74911 29.6879 24.7554
2 4.2354 30.5229 25.3509
1 4.33553 29.2834 23.5566
2 5.18437 29.8639 23.1326
1 3.72298 28.2635 22.7877
1 2.47126 27.7279 23.2235
2 1.99818 26.9545 22.6772
1 4.3782 27.5492 21.5809
1 37.8392 25.1369 27.6247
1 36.6988 24.3758 28.298
1 36.192 24.7576 29.5845
2 36.6493 25.6295 30.1228
1 35.1194 24.0609 30.1663
2 34.854 24.1973 31.2165
1 34.6101 22.8915 29.511
2 33.7066 22.4811 29.8466
1 35.0419 22.546 28.2527
1 36.1138 23.2593 27.6344
2 36.4768 23.0557 26.6435
1 34.3052 21.4603 27.5238
1 32.0191 17.6951 24.6164
1 31.376 16.5474 23.8962
1 30.0128 16.2799 24.053
2 29.432 16.8548 24.7221
1 29.3974 15.2018 23.4292
2 28.3361 15.0537 23.5978
1 30.1054 14.4081 22.4747
2 29.6414 13.5324 22.027
1 31.4311 14.7378 22.1878
1 32.0949 15.7876 22.9125
2 33.1374 15.9285 22.7545
1 32.1698 13.9819 21.1511
3 0.129139 14.5137 27.0396
3 0.586016 12.5987 27.8086
3 0.360296 12.3282 24.5694
3 -0.256193 10.4574 25.5253
3 38.3101 12.7187 24.7138
3 38.8554 10.7465 25.6574
3 38.0057 13.8783 26.0288
3 38.0896 12.594 27.8197
3 5.96633 20.7358 24.5929
3 6.81683 21.3132 26.4972
3 5.67553 17.7661 25.0972
3 7.63328 18.4376 25.8614
3 4.48176 17.4625 26.2957
3 5.3403 17.9127 28.2934
3 3.79346 20.6808 27.0332
3 5.77181 21.2568 27.8778
3 5.47489 13.9276 17.7327
3 7.45452 13.0726 18.2017
3 4.37531 12.8206 17.9198
3 5.20795 10.8875 18.6732
3 3.92246 12.4624 21.0307
3 5.0509 10.6687 20.47
3 6.17995 14.7985 20.878
3 7.12185 12.8537 21.4765
3 -0.107207 26.8327 24.2661
3 0.546042 27.656 26.2417
3 0.109054 24.4184 26.6305
3 0.6244 26.397 27.5001
3 38.0518 25.0063 26.403
3 38.5894 25.8793 28.323
3 37.8512 26.166 25.0946
3 38.3782 28.1431 25.9708
3 34.983 20.6493 26.8492
3 33.0368 21.2902 27.7055
3 34.4268 17.5121 25.7428
3 33.2096 17.8546 27.5929
3 33.2849 17.7788 24.6848
3 31.2753 18.4992 25.3174
3 32.9504 20.8625 24.3312
3 31.0483 20.127 25.2209
3 4.13909 26.0272 17.6542
3 5.07858 28.0067 18.3115
3 5.48496 25.008 17.7491
3 7.4524 25.9453 18.2804
3 5.99933 24.3846 20.7164
3 6.67501 26.347 21.4805
3 3.70457 26.8636 20.7784
3 5.64125 27.5492 21.4311
3 -0.529877 15.5435 24.4495
3 2.96898 19.8435 24.3607
3 3.7779 15.6709 19.9235
3 39.8285 24.4107 23.4207
3 35.9815 19.7676 23.9827
3 3.14623 23.8434 19.8211
4 -0.942023 13.7675 25.4182
4 39.8502 11.4034 27.3949
4 4.54549 19.5055 25.5662
4 6.80049 19.3804 27.6133
4 4.85427 13.8472 19.825
4 6.84063 11.6638 19.7764
4 39.759 25.4077 25.3081
4 39.7157 27.5282 27.4841
4 34.3871 19.5299 25.2488
4 32.023 19.5621 27.1384
4 4.55127 25.2627 19.5974
4 6.65661 27.387 19.5355
2 2.90523 19.3415 23.5307
2 2.60072 20.7206 24.3373
2 36.9919 19.8284 14.214
2 36.0795 20.2908 15.5035
2 36.8702 14.3856 19.6749
2 36.3801 14.888 18.1498
2 39.3357 14.4666 16.2779
2 -0.877581 15.7587 15.4811
2 2.98744 23.3218 20.6343
2 2.54203 23.8157 19.1124
2 38.8639 24.5502 15.9917
2 39.0659 23.14 15.2166
2 2.3418 18.9863 14.7443
2 3.4952 19.2047 15.9586
2 -0.541632 23.6251 23.4249
2 39.6076 24.9205 22.6674
2 36.2477 23.7292 19.9368
2 36.5112 24.9158 21.0718
2 36.2572 19.3132 23.1876
2 36.6916 20.3387 24.2765
2 4.07372 16.3125 19.2668
2 3.53154 15.8809 20.866
2 0.148114 15.5071 23.7193
2 39.8198 16.2942 24.5034
1 27.3376 1.00266 25.2437
1 27.9187 2.2495 24.6034
1 29.0797 2.86275 25.1834
2 29.6592 2.28647 25.9736
1 29.5983 4.0267 24.5496
2 30.4927 4.41918 24.9343
1 29.0292 4.57422 23.4103
2 29.4486 5.38377 22.8658
1 27.8658 3.99367 22.861
1 27.3212 2.81581 23.4546
2 26.4775 2.30087 23.0063
1 27.2674 4.56133 21.5733
1 25.0979 0.97183 27.6397
1 24.481 2.23771 28.1725
1 25.0266 2.8311 29.2855
2 25.8724 2.31467 29.7812
1 24.5488 3.99755 29.8112
2 25.0712 4.4539 30.595
1 23.4203 4.67576 29.1972
2 23.0625 5.58027 29.6093
1 22.7453 4.10471 28.1245
1 23.3355 2.88739 27.517
2 22.9265 2.48187 26.6285
1 21.552 4.6764 27.4895
1 24.8591 37.97 27.4303
1 24.1562 36.8658 28.0751
1 24.2813 36.6131 29.4516
2 25.0642 37.1087 30.009
1 23.5403 35.6432 30.125
2 23.8101 35.4893 31.135
1 22.6038 34.9223 29.4068
2 21.9803 34.1781 29.9374
1 22.4004 35.1147 28.0301
1 23.1716 36.0999 27.3102
2 23.0381 36.3712 26.2838
1 21.2761 34.3948 27.3248
1 27.4552 38.1649 25.1932
1 28.1503 37.1973 24.3192
1 29.5721 37.2507 24.2266
2 30.1653 37.7653 24.9839
1 30.1729 36.4656 23.2457
2 31.2105 36.4539 23.1866
1 29.4194 35.596 22.3558
2 29.9863 34.91 21.6893
1 28.0948 35.5124 22.5115
1 27.4297 36.368 23.4782
2 26.3498 36.3188 23.4187
1 27.2546 34.7378 21.5436
1 25.2385 6.75589 17.412
1 24.7501 7.38421 16.1204
1 25.4728 8.40174 15.4483
2 26.3812 8.77067 15.7942
1 24.9395 8.88421 14.2149
2 25.3876 9.78811 13.8304
1 23.7343 8.37887 13.73
2 23.4204 8.72073 12.7855
1 22.9522 7.45316 14.4132
1 23.4889 6.97585 15.6718
2 22.8533 6.27348 16.2259
1 21.6494 7.06288 13.8352
1 24.7901 6.76648 21.5087
1 24.2415 7.37597 22.7537
1 24.7926 8.56348 23.294
2 25.6654 9.08133 22.8282
1 24.2209 9.18419 24.3821
2 24.6646 10.1388 24.7674
1 23.1644 8.54616 25.0791
2 22.7632 9.02262 25.8931
1 22.573 7.43621 24.5409
1 23.1272 6.81509 23.4259
2 22.66 5.88229 23.0302
1 21.342 6.84103 25.1258
1 27.1175 4.20213 17.6722
1 27.7647 3.51833 16.5321
1 28.9872 3.99382 15.9756
2 29.5876 4.7801 16.52
1 29.5268 3.4112 14.8544
2 30.3458 3.88697 14.4292
1 28.8264 2.38956 14.1966
2 29.1044 2.15148 13.2188
1 27.5636 1.89967 14.6816
1 27.0356 2.49198 15.8052
2 26.1253 2.23859 16.1555
1 26.9615 0.775065 13.9015
1 17.3569 7.06906 25.3983
1 16.1276 7.60086 24.7171
1 15.5321 8.79124 25.2605
2 16.0087 9.20841 26.1106
1 14.3938 9.38974 24.6956
2 14.0906 10.3514 25.1053
1 13.8459 8.77114 23.6125
2 12.9616 9.27466 23.2762
1 14.3983 7.54509 23.0233
1 15.5596 7.01565 23.5609
2 16.0876 6.17282 23.2226
1 13.779 7.03463 21.7852
1 17.2947 4.65064 27.6293
1 16.1703 3.93881 28.3042
1 15.6879 4.4162 29.5267
2 15.9798 5.36948 29.9637
1 14.5714 3.82711 30.1027
2 14.0912 4.32265 30.9709
1 13.908 2.87357 29.3433
2 13.0176 2.44734 29.7753
1 14.3316 2.37373 28.0861
1 15.4801 2.97045 27.5685
2 15.7856 2.80231 26.5387
1 13.689 1.22347 27.3156
1 24.5776 0.6665 11.4864
1 23.9098 1.81902 10.8378
1 24.1348 2.0386 9.49172
2 24.9947 1.61362 8.99337
1 23.3863 3.03927 8.80815
2 23.592 3.21131 7.77829
1 22.4733 3.84687 9.55835
2 21.852 4.5364 9.04008
1 22.2985 3.72388 10.9278
1 22.9595 2.62094 11.5485
2 22.7854 2.46867 12.5939
1 21.2771 4.48698 11.6997
1 27.1727 38.099 13.9288
1 27.8189 36.946 14.6149
1 28.8836 36.2648 14.0091
2 29.2005 36.611 13.0783
1 29.5434 35.2311 14.6587
2 30.3902 34.8229 14.2219
1 28.9927 34.7205 15.8807
2 29.5453 33.8211 16.3774
1 27.8116 35.2051 16.4038
1 27.2658 36.389 15.791
2 26.444 36.9473 16.2048
1 27.2345 34.5344 17.586
1 25.0046 32.2198 21.5234
1 24.2649 31.5174 22.5903
1 24.7329 30.328 23.1074
2 25.7112 29.9254 22.8871
1 24.0726 29.7256 24.166
2 24.4637 28.8394 24.6516
1 22.8932 30.2178 24.6657
2 22.4025 29.7013 25.4589
1 22.4047 31.4335 24.1746
1 23.0742 32.1217 23.1489
2 22.7438 33.0413 22.7519
1 21.2927 32.11 24.8292
3 26.5738 0.248412 24.5289
3 27.4469 0.790482 26.5218
3 24.429 0.245744 26.8464
3 26.3412 0.742122 27.7692
3 24.8767 38.1019 26.1832
3 25.5072 38.8331 28.1094
3 26.1875 38.2509 25.2003
3 28.149 38.8482 26.0036
3 24.4184 6.31851 18.2786
3 26.5062 6.71001 17.6719
3 24.7394 5.46856 21.4303
3 25.5631 7.42395 20.7681
3 26.0637 4.38087 21.278
3 27.8964 5.49646 21.0344
3 26.2587 3.55406 18.4223
3 27.4798 5.3978 17.9109
3 17.6102 5.79973 25.3295
3 18.1297 7.79472 26.0549
3 17.4853 4.60436 26.402
3 18.1558 5.30262 28.3007
3 20.6964 3.90287 26.924
3 21.3304 5.94661 27.5452
3 20.6918 5.9263 24.5077
3 21.1664 6.99283 26.4232
3 24.5322 0.604717 12.7356
3 25.4356 -0.0304594 10.8287
3 25.7173 0.548206 14.0159
3 27.6089 0.186472 13.0184
3 26.3657 38.8742 14.4979
3 27.5411 38.2883 12.6799
3 24.4131 38.4937 11.7035
3 26.5043 38.0016 11.2712
3 26.7582 35.2358 18.4808
3 27.1917 33.2488 17.6764
3 25.9999 34.7459 21.5768
3 27.8788 34.0185 20.6872
3 25.0038 33.4963 21.4356
3 25.7375 31.5702 20.7376
3 24.2102 33.0544 18.4943
3 26.0223 31.997 17.8112
3 17.6695 4.66894 12.9696
3 18.2179 5.49393 10.9501
3 17.6034 5.8931 14.1286
3 18.3097 7.76403 13.333
3 20.8187 6.45887 14.5957
3 21.4842 7.00526 12.5605
3 20.5369 3.9098 12.5349
3 21.2825 5.76751 11.5444
3 23.7547 -0.5277 23.7344
3 23.3616 3.39756 19.1391
3 19.1671 3.07558 24.0255
3 23.1041 39.719 14.5706
3 24.0301 36.1414 19.3622
3 19.6525 3.66051 15.5708
4 25.0807 -1.00124 25.3623
4 27.2735 40.0056 27.5862
4 24.938 4.76089 19.491
4 27.2419 6.8238 19.577
4 19.416 4.60834 25.4598
4 19.3258 6.90706 27.5932
4 24.8617 39.748 13.4123
4 27.1585 -1.08475 11.4392
4 25.1779 34.5284 19.6309
4 27.2683 32.3393 19.5392
4 19.5056 5.03701 13.9651
4 19.5046 7.01779 11.7535
1 11.5069 38.2177 13.8055
1 10.7607 37.1115 14.4374
1 9.4013 36.9788 14.2133
2 8.85474 37.7995 13.6799
1 8.72477 35.8103 14.6783
2 7.71664 35.6174 14.3383
1 9.35572 34.9585 15.5597
2 8.83752 34.0138 15.7602
1 10.676 35.2031 16.0486
1 11.3592 36.2582 15.4184
2 12.3933 36.3737 15.6322
1 11.2688 34.4349 17.1567
1 13.9234 38.3506 11.4773
1 14.6896 37.1438 10.8223
1 14.3287 36.7131 9.52681
2 13.5277 37.2833 9.08398
1 15.0123 35.7281 8.85152
2 14.7534 35.3387 7.81659
1 16.0552 35.1037 9.48035
2 16.5333 34.2251 8.95273
1 16.3741 35.3951 10.8169
1 15.7381 36.4471 11.4561
2 16.0725 36.8137 12.4102
1 17.4723 34.7372 11.4659
1 13.8133 1.26567 11.7446
1 14.4739 2.46125 11.172
1 13.9436 3.01531 10.0057
2 13.0328 2.6819 9.52105
1 14.5055 4.15598 9.40851
2 14.1381 4.62876 8.48559
1 15.6755 4.64975 9.93839
2 16.0181 5.563 9.46743
1 16.3167 4.08747 11.1006
1 15.6495 3.02171 11.7253
2 16.0331 2.62189 12.6806
1 17.4689 4.76995 11.6929
1 11.531 1.24583 14.0238
1 11.085 2.53868 14.5949
1 9.9838 3.22195 14.046
2 9.33858 2.75735 13.1941
1 9.60654 4.47182 14.4716
2 8.90931 5.04659 13.8985
1 10.1394 4.93757 15.6276
2 9.90975 5.87731 16.0293
1 11.2204 4.29532 16.2568
1 11.6853 3.06692 15.7503
2 12.6172 2.61127 16.1323
1 11.6696 4.80388 17.5445
1 13.5811 32.2815 21.3309
1 14.0815 31.9681 22.7378
1 13.2148 31.2606 23.6075
2 12.1875 31.0305 23.2665
1 13.6389 31.0341 24.9241
2 12.9347 30.7437 25.621
1 14.9006 31.4024 25.3339
2 15.1964 31.1714 26.3795
1 15.8395 32.0468 24.5064
1 15.3544 32.4115 23.1731
2 16.0022 32.8744 22.4242
1 17.1685 32.3775 25.0029
1 13.6964 32.3557 17.106
1 14.3736 31.7398 15.9017
1 13.9649 30.467 15.4709