2232
 Atoms. Timestep: 0
1 38.0502 34.278 7.21669
1 37.1175 35.1509 8.03849
1 36.6447 34.7249 9.33215
2 37.1206 33.9008 9.85144
1 35.5751 35.3918 9.9122
2 35.2867 35.1113 10.8627
1 35.008 36.5062 9.2616
2 34.1073 36.9469 9.7673
1 35.4662 36.9674 7.99917
1 36.5009 36.2712 7.39813
2 36.8385 36.5714 6.38898
1 34.7173 38.0768 7.2793
1 37.6305 31.8496 4.9905
1 36.2461 31.4564 4.62506
1 35.5376 30.4873 5.33882
2 35.9605 29.9936 6.30634
1 34.3497 29.9285 4.89406
2 33.8584 29.1143 5.4175
1 33.8155 30.416 3.69885
2 32.7712 30.0383 3.37952
1 34.5338 31.3634 2.92281
1 35.7945 31.8132 3.3267
2 36.3489 32.4694 2.72961
1 33.8989 31.8298 1.70954
1 1.1911 31.6996 4.37266
1 2.15098 31.0047 3.53862
1 2.25989 29.6501 3.69694
2 1.99189 29.0739 4.51459
1 3.15513 28.914 2.90275
2 3.42651 27.8412 3.20953
1 3.80173 29.5587 1.85215
2 4.51492 29.0301 1.2649
1 3.70848 30.9737 1.66723
1 2.81535 31.6765 2.53686
2 2.88441 32.7833 2.55738
1 4.60013 31.675 0.730465
1 1.63556 34.0233 6.62723
1 2.92576 34.5945 7.16397
1 3.5225 34.0279 8.33072
2 3.0434 33.1906 8.82693
1 4.74564 34.5266 8.8203
2 5.27725 34.1447 9.68384
1 5.33596 35.6438 8.16731
2 6.25354 36.1091 8.46481
1 4.76973 36.2296 7.04456
1 3.60811 35.7039 6.53383
2 3.17401 36.1542 5.6207
1 5.31115 37.5228 6.51865
1 32.1068 1.45628 5.01314
1 31.4566 2.59692 4.33725
1 30.3567 3.13527 4.97093
2 29.9819 2.70068 5.93048
1 29.692 4.17574 4.36441
2 28.8829 4.68663 4.88578
1 30.1457 4.72028 3.11888
2 29.6991 5.61595 2.74668
1 31.2723 4.17917 2.55528
1 31.9417 3.10018 3.12947
2 32.8718 2.63899 2.65007
1 31.8166 4.78178 1.33132
1 32.2906 37.9284 5.18053
1 31.6033 36.7009 4.75165
1 30.5686 36.1137 5.48532
2 30.1246 36.5196 6.39264
1 29.9548 34.8994 5.06923
2 29.0702 34.5076 5.60579
1 30.3434 34.3304 3.85196
2 29.9082 33.3978 3.65128
1 31.3841 34.9134 3.05014
1 31.9559 36.0595 3.55282
2 32.8079 36.5029 2.95316
1 31.8226 34.3285 1.76697
1 35.1452 0.767904 7.55534
1 36.1116 1.64814 8.33557
1 36.15 1.6728 9.72062
2 35.4806 1.0524 10.306
1 37.0768 2.47232 10.3855
2 37.1434 2.50839 11.453
1 37.7805 3.36516 9.62209
2 38.4635 4.0523 10.1077
1 37.731 3.44843 8.24003
1 36.9412 2.53835 7.60626
2 37.0082 2.50917 6.55102
1 38.4837 4.42533 7.40951
1 31.4931 34.449 38.2675
1 30.7526 35.2188 37.2414
1 29.4351 34.9012 36.8486
2 28.8613 34.0928 37.2194
1 28.8676 35.6535 35.817
2 27.8448 35.508 35.5129
1 29.509 36.662 35.1804
2 29.1263 37.0989 34.2667
1 30.8276 37.0015 35.5188
1 31.4298 36.2784 36.574
2 32.4667 36.542 36.7354
1 31.6144 37.9307 34.7112
1 33.9864 32.1338 38.0948
1 34.8251 31.4133 37.11
1 34.8265 30.0216 37.0777
2 34.1776 29.4039 37.7515
1 35.7065 29.3084 36.2875
2 35.8029 28.2519 36.3884
1 36.609 29.9868 35.4568
2 37.2691 29.4332 34.8835
1 36.6179 31.4032 35.423
1 35.7513 32.0982 36.3192
2 35.7225 33.1622 36.2597
1 37.533 32.156 34.4923
1 37.6812 7.32053 4.59636
1 36.4597 7.9297 3.98707
1 35.9328 9.10704 4.47832
2 36.3807 9.62063 5.29776
1 34.8325 9.68436 3.82799
2 34.4613 10.6261 4.13679
1 34.2474 9.0084 2.7273
2 33.4332 9.4483 2.17162
1 34.7346 7.83854 2.25458
1 35.8914 7.32304 2.88756
2 36.2933 6.4136 2.4782
1 34.098 7.21114 1.0991
1 1.33322 4.86058 6.89849
1 2.58464 4.24458 7.37887
1 3.32373 4.88227 8.40253
2 3.10105 5.81016 8.7552
1 4.4495 4.36788 8.93857
2 5.01639 4.85884 9.73156
1 4.95803 3.12071 8.4847
2 5.91319 2.75015 8.88589
1 4.3027 2.44493 7.46173
1 3.11925 3.03247 6.94506
2 2.61659 2.53462 6.13316
1 4.82402 1.19519 6.89123
1 7.20832 37.913 4.08385
1 7.83632 36.8273 3.30191
1 9.20257 36.6703 3.28687
2 9.7952 37.2505 3.94751
1 9.80126 35.6096 2.60947
2 10.8429 35.3222 2.87751
1 8.98262 34.7539 1.84584
2 9.49441 33.9051 1.40898
1 7.62864 34.915 1.72517
1 7.0179 35.964 2.47231
2 5.92984 36.1185 2.3289
1 6.86438 34.1094 0.769391
3 38.7456 34.8002 6.28278
3 38.1086 33.0035 7.3867
3 38.3774 32.4066 4.13181
3 37.9933 31.8256 6.21947
3 1.07391 32.9774 4.28151
3 0.550741 31.0976 5.27575
3 1.35302 34.0709 5.3839
3 0.796731 33.5633 7.46015
3 32.7326 0.669307 4.30089
3 32.0255 1.33353 6.24902
3 33.4938 38.0214 4.93001
3 31.7668 38.6156 6.09356
3 34.678 38.0972 6.0217
3 34.1927 39.0328 7.98581
3 35.2724 0.611173 6.29716
3 34.2111 0.137596 8.17041
3 32.7538 34.5617 38.3975
3 30.8028 33.6711 39.0288
3 33.9576 33.3988 38.1284
3 33.3622 31.4614 39.0008
3 34.5715 32.6598 0.965355
3 32.6123 31.7935 1.60198
3 32.5557 35.0408 1.00212
3 31.6077 33.0986 1.56029
3 38.4064 6.53278 3.91315
3 37.8843 7.43575 5.85089
3 38.4041 4.32955 6.12885
3 39.2888 5.31291 7.96043
3 1.15111 4.82703 5.63087
3 0.541271 5.51511 7.58848
3 1.24981 6.05284 4.48042
3 0.853699 7.79672 5.77032
3 4.10867 0.532058 6.09846
3 6.04916 0.948436 7.02073
3 4.67635 38.105 5.52998
3 6.41437 38.0151 7.00195
3 5.95603 38.1373 3.97617
3 7.89275 38.6233 4.8728
3 6.42796 0.601201 3.84396
3 8.24784 -0.0847515 4.8573
3 34.6071 6.40894 38.155
3 32.5756 7.02534 37.5867
3 32.4028 4.17355 38.6733
3 31.3717 5.94081 37.8504
3 33.1033 4.79476 1.09188
3 30.9774 5.34182 0.574796
3 34.3418 5.98142 0.90748
3 33.3125 7.85286 0.322997
3 39.4843 35.3603 3.10796
3 35.7657 -0.172357 3.26876
3 35.4898 35.7484 -0.352354
3 39.2247 3.60988 3.26123
3 3.42039 -0.259597 3.1301
3 35.2593 3.54384 39.2874
4 -0.648685 33.9034 4.65433
4 -0.366168 31.9006 6.98846
4 34.3578 -0.547308 4.88156
4 32.3558 -0.34313 7.39085
4 34.0012 34.2496 -0.286732
4 31.6653 32.0965 -0.262881
4 -0.75083 5.04694 4.72262
4 -0.675274 7.20025 6.94821
4 4.87303 -0.581797 4.59435
4 7.29141 -0.721295 6.57031
4 33.941 5.10092 39.61
4 31.7301 6.89551 -0.716485
1 0.477785 4.30591 31.2996
1 1.40406 3.51435 30.5071
1 1.41702 3.5005 29.0905
2 0.63026 4.10893 28.6223
1 2.36559 2.76735 28.429
2 2.35846 2.84813 27.3615
1 3.35187 2.01485 29.1119
2 4.03199 1.36149 28.6453
1 3.35872 1.95693 30.5191
1 2.31884 2.65062 31.2039
2 2.26674 2.53463 32.2212
1 4.23724 1.03314 31.2749
1 1.28343 7.24094 34.1758
1 2.61674 7.77566 34.6845
1 3.26135 8.87587 34.0976
2 2.78634 9.33483 33.2334
1 4.33385 9.47769 34.7864
2 4.7388 10.4701 34.3346
1 4.90013 8.89273 35.8936
2 5.83586 9.27591 36.3239
1 4.39355 7.66629 36.4046
1 3.24627 7.12869 35.7957
2 2.6697 6.31603 36.2534
1 4.93343 7.06394 37.6771
1 37.4882 7.18742 34.0227
1 36.2366 7.7719 34.5668
1 35.6358 8.95315 33.9951
2 36.1505 9.52665 33.29
1 34.4407 9.42081 34.5135
2 34.048 10.4006 34.1746
1 33.8107 8.78263 35.6331
2 33.0251 9.3103 36.0972
1 34.3356 7.63002 36.193
1 35.5714 7.11809 35.631
2 35.9777 6.20446 36.1212
1 33.8375 7.00059 37.3569
1 37.5745 4.81109 31.959
1 36.5534 4.01198 31.3135
1 36.2641 4.20274 29.8863
2 36.7101 5.06913 29.3284
1 35.3237 3.42513 29.2575
2 35.2027 3.56984 28.1875
1 34.6864 2.40533 29.9163
2 33.9686 1.71415 29.3682
1 34.8703 2.16392 31.2658
1 35.8508 2.94079 31.9426
2 35.8641 2.77516 32.9964
1 34.1204 1.13412 31.9967
1 6.7142 37.6341 33.6179
1 7.1437 36.3002 34.0756
1 7.86178 35.4675 33.2102
2 7.96341 35.8049 32.2457
1 8.24291 34.1814 33.522
2 8.79573 33.6555 32.7832
1 7.92 33.6446 34.7798
2 8.16234 32.5859 35.0758
1 7.25965 34.5086 35.6936
1 6.82807 35.8155 35.343
2 6.17078 36.3831 36.0025
1 6.88755 33.9378 36.9917
1 6.89654 1.29412 34.3414
1 7.65658 2.22294 35.108
1 9.02907 2.42472 34.77
2 9.52852 1.85141 34.0172
1 9.81662 3.35952 35.5236
2 10.8904 3.52705 35.3373
1 9.15778 4.1437 36.5048
2 9.67386 4.93714 37.0177
1 7.84538 3.94128 36.7967
1 7.10455 3.04325 36.0469
2 6.03396 3.03822 36.2332
1 7.23538 4.74758 37.838
1 4.37065 38.2864 31.4062
1 3.53672 37.1987 30.7798
1 3.98912 36.5837 29.601
2 4.88022 36.8942 29.0801
1 3.34542 35.5148 29.0894
2 3.64684 34.9851 28.1299
1 2.23655 34.9795 29.7749
2 1.74706 34.1265 29.3591
1 1.77823 35.4977 30.9412
1 2.4134 36.6115 31.4774
2 2.0725 37.0209 32.3943
1 0.711695 34.7993 31.6447
1 7.57221 4.08411 0.57821
1 8.37187 3.21739 1.39015
1 9.77122 3.37595 1.51904
2 10.2637 4.22145 0.988313
1 10.5003 2.49627 2.34609
2 11.574 2.63147 2.52242
1 9.83122 1.50099 3.02042
2 10.505 1.00922 3.77593
1 8.44647 1.42744 2.98387
1 7.74169 2.22013 2.05292
2 6.70679 2.09368 1.97005
1 7.67975 0.639527 3.95922
1 4.97956 7.30758 1.32689
1 4.32872 7.96415 2.46649
1 4.84645 9.17341 2.98381
2 5.68669 9.65612 2.45438
1 4.25444 9.75212 4.13941
2 4.64179 10.6132 4.52046
1 3.16048 9.14659 4.70673
2 2.72941 9.70203 5.55406
1 2.61599 7.95235 4.17983
1 3.26533 7.34399 3.06329
2 2.91517 6.39216 2.68993
1 1.4763 7.27586 4.80828
1 0.275801 31.6235 34.646
1 1.13453 30.8132 35.4954
1 1.20629 29.4058 35.3961
2 0.669999 28.9517 34.5653
1 1.99945 28.6537 36.2856
2 2.00136 27.5468 36.3774
1 2.862 29.3373 37.1702
2 3.59085 28.8375 37.8444
1 2.87699 30.7551 37.2148
1 2.01489 31.4537 36.3546
2 2.1127 32.4934 36.2704
1 3.86472 31.4942 38.0577
1 36.9703 33.8625 32.013
1 35.6812 34.394 31.483
1 34.8935 33.6973 30.5954
2 35.3651 32.7801 30.1621
1 33.7891 34.2744 29.9502
2 33.2638 33.777 29.0933
1 33.2582 35.4945 30.4708
2 32.417 35.9536 30.0076
1 34.0428 36.2022 31.4088
1 35.2412 35.6572 31.8972
2 35.8254 36.2172 32.5807
1 33.5593 37.4809 32.0182
1 31.5479 0.975974 34.4407
1 30.8643 2.00192 35.1981
1 29.5839 2.4068 34.8815
2 29.036 1.8049 34.1285
1 28.9334 3.47297 35.5347
2 27.8996 3.73745 35.369
1 29.677 4.22748 36.4339
2 29.2689 5.03701 37.0191
1 30.9311 3.85422 36.8167
1 31.5738 2.78084 36.1276
2 32.5991 2.50839 36.4214
1 31.5354 4.66176 37.855
3 0.417991 4.08727 32.5153
3 -0.205241 5.29204 30.8191
3 0.668977 6.37727 34.8608
3 0.899681 7.56473 33.004
3 37.7409 5.96544 34.276
3 38.1412 7.77995 33.1066
3 37.7537 4.67943 33.2281
3 38.3892 5.46313 31.2341
3 5.84224 38.1917 34.3371
3 6.96521 38.0257 32.4172
3 5.70798 1.02674 34.6435
3 7.50422 0.667805 33.3842
3 3.70457 0.380303 32.268
3 5.45307 0.743492 30.9167
3 3.80044 39.0972 32.1853
3 5.66048 38.3181 31.2427
3 6.32459 3.92322 0.444738
3 8.10413 5.08051 -0.0113442
3 4.28162 6.6087 0.528749
3 6.21578 7.44271 1.16614
3 4.61605 5.83592 37.9687
3 5.89445 7.62506 38.2943
3 5.92366 4.75577 37.9956
3 7.98589 5.37154 38.6787
3 0.15828 32.8889 34.8493
3 -0.456116 31.0827 33.7614
3 0.0221313 35.408 32.5126
3 0.548092 33.5262 31.4797
3 37.4329 34.3676 33.0953
3 37.6111 33.0504 31.3463
3 37.6749 33.4018 34.6459
3 38.2112 31.5169 33.6157
3 34.3901 38.3052 32.4993
3 32.3423 37.7285 32.0902
3 34.1287 1.09924 33.2591
3 33.2716 0.432134 31.3355
3 32.8342 0.872785 34.5419
3 30.8945 0.305619 33.6344
3 32.527 38.6539 35.2191
3 31.2956 38.1589 33.4394
3 4.5631 32.9659 0.673739
3 5.18053 31.0099 -0.208681
3 5.62514 34.1638 0.781042
3 7.42395 33.3968 -0.107729
3 6.4658 34.674 37.9601
3 6.81587 32.6966 37.1584
3 3.64379 32.7141 38.3408
3 4.98458 30.9287 38.4212
3 -0.165712 4.76822 35.9045
3 3.44034 39.5819 35.4868
3 3.52737 3.35947 -0.391744
3 -0.486305 35.9441 35.1709
3 35.6603 39.4264 35.2112
3 3.80074 35.763 39.1403
4 -0.675904 5.12996 33.8889
4 39.5587 7.206 31.858
4 4.69073 -0.563916 33.9441
4 6.87871 -0.464817 31.759
4 4.94292 4.96629 -0.605076
4 7.26149 6.95822 -0.615844
4 39.4632 34.3241 33.9521
4 39.4522 32.1399 31.9079
4 34.0499 39.6775 34.0649
4 31.6575 -0.758852 32.0798
4 4.93173 34.0335 39.2809
4 6.80288 31.8519 39.0452
2 2.8141 38.8375 35.5293
2 3.38075 -0.185815 36.101
2 35.5732 0.738689 2.86223
2 36.5785 -0.574328 2.99636
2 35.7627 3.50424 38.4598
2 35.5397 3.0979 -0.362554
2 38.9953 2.7613 3.61726
2 39.2859 3.71485 2.29308
2 3.04806 35.5728 38.5926
2 3.74438 36.5013 -0.676406
2 -0.273309 36.0815 2.93381
2 38.6855 35.2679 2.54691
2 3.57051 -0.160147 2.18075
2 2.51194 -0.48374 3.29357
2 39.4879 36.8039 35.1318
2 0.440851 35.9313 35.3891
2 35.7752 36.2203 39.2443
2 35.4841 36.1672 0.520272
2 35.7768 39.6585 36.1566
2 36.198 38.7307 34.8829
2 2.66672 3.42666 0.0129743
2 3.74447 2.69015 39.2961
2 0.498934 4.12409 36.0629
2 -0.576417 5.26072 36.6199
1 37.7712 24.9605 11.3885
1 36.4211 24.5393 10.9885
1 35.5179 25.4645 10.332
2 35.8291 26.5215 10.1152
1 34.2008 25.1199 10.0351
2 33.6019 25.9497 9.58945
1 33.7105 23.9065 10.4166
2 32.7169 23.7205 10.2063
1 34.5996 22.9317 11.0215
1 35.9495 23.2683 11.3508
2 36.6115 22.5874 11.7392
1 34.0386 21.648 11.5923
1 37.6937 27.1824 13.723
1 36.3253 27.6082 14.1412
1 35.558 28.481 13.3016
2 35.9023 28.7668 12.3276
1 34.3017 28.915 13.6749
2 33.7039 29.6264 13.056
1 33.7612 28.4291 14.8845
2 32.7095 28.7187 15.1729
1 34.545 27.6315 15.7228
1 35.7574 27.0867 15.3266
2 36.4069 26.474 15.9481
1 34.0217 27.2241 17.1126
1 1.42069 27.1805 13.913
1 2.50091 27.8216 14.6497
1 2.96429 29.1013 14.239
2 2.48578 29.627 13.4339
1 3.96758 29.7287 14.9801
2 4.30854 30.7137 14.7493
1 4.5506 29.11 16.0283
2 5.27459 29.6803 16.6539
1 4.18082 27.7997 16.397
1 3.13641 27.1446 15.7507
2 2.73438 26.2034 16.0293
1 4.96981 27.2233 17.5116
1 1.40585 24.6477 11.5787
1 2.48147 23.8884 10.9274
1 2.76887 24.1401 9.60244
2 2.26135 24.9245 9.0511
1 3.73328 23.3842 8.96331
2 3.92691 23.6415 7.97376
1 4.47625 22.4 9.64781
2 5.25351 21.81 9.22441
1 4.25653 22.1412 11.0014
1 3.23366 22.9023 11.6641
2 2.95319 22.8861 12.7413
1 5.08196 21.1115 11.7295
1 31.1547 18.5075 14.5185
1 30.3289 17.727 15.4296
1 28.9468 17.7723 15.4063
2 28.4183 18.3832 14.7712
1 28.2519 16.9589 16.2764
2 27.2056 16.9611 16.4302
1 28.9183 16.0785 17.1809
2 28.3648 15.4156 17.818
1 30.3025 16.104 17.2596
1 30.9933 16.9886 16.4241
2 32.0948 16.9806 16.4342
1 31.0697 15.0975 18.0199
1 31.7256 21.4051 14.1818
1 31.0033 22.4746 14.9346
1 29.7118 22.926 14.5302
2 29.1924 22.3669 13.7759
1 29.112 23.9954 15.1514
2 28.173 24.3003 14.9029
1 29.7921 24.7285 16.0955
2 29.2785 25.5895 16.5167
1 31.0932 24.2564 16.5208
1 31.6437 23.068 15.9867
2 32.5697 22.5898 16.3413
1 31.8536 24.9806 17.5654
1 33.7885 17.2877 11.6601
1 34.4804 16.2236 10.973
1 33.8879 15.6251 9.8171
2 33.0004 15.9798 9.4052
1 34.4377 14.4244 9.33473
2 34.005 14.014 8.42737
1 35.6015 13.8836 9.87092
2 35.9772 12.9923 9.5521
1 36.2598 14.4884 10.9364
1 35.6965 15.6613 11.4689
2 36.1496 16.0834 12.341
1 37.4431 13.8766 11.5199
1 31.7916 24.5875 20.7946
1 30.9944 23.7419 21.7041
1 29.6104 23.9151 21.7361
2 29.1083 24.5364 21.0347
1 28.8921 23.4083 22.8063
2 27.8348 23.6079 22.8682
1 29.505 22.5364 23.731
2 28.9388 22.1922 24.5587
1 30.8274 22.1409 23.5099
1 31.5787 22.7962 22.5178
2 32.6764 22.6592 22.4459
1 31.5389 21.2372 24.4879
1 34.3929 27.7523 21.0965
1 35.2028 28.4629 22.1306
1 34.973 29.8465 22.4141
2 34.2433 30.3323 21.852
1 35.8123 30.4753 23.3594
2 35.7361 31.534 23.5343
1 36.7848 29.7472 24.0012
2 37.4396 30.2392 24.7293
1 36.9479 28.3526 23.915
1 36.0951 27.7391 23.0044
2 36.109 26.6805 22.8007
1 38.0064 27.6651 24.7514
1 37.3884 11.5673 13.8917
1 36.0809 11.1064 14.4179
1 35.3825 10.101 13.7186
2 35.7221 9.73816 12.7665
1 34.0788 9.77548 14.108
2 33.4748 9.0307 13.531
1 33.4502 10.3759 15.2047
2 32.5243 10.0756 15.5285
1 34.211 11.3054 15.9695
1 35.4879 11.6394 15.5482
2 35.8729 12.5127 16.0256
1 33.6339 11.9981 17.1577
1 1.12193 13.839 11.6086
1 2.27054 14.485 10.9657
1 2.7997 13.8793 9.81739
2 2.27486 13.1147 9.19079
1 4.08521 14.1965 9.42567
2 4.52574 13.679 8.56214
1 4.78991 15.2518 9.97946
2 5.8263 15.3931 9.63311
1 4.21529 15.9486 11.0664
1 2.9564 15.6034 11.5851
2 2.51927 16.1103 12.4136
1 4.93565 17.0778 11.6733
1 7.40976 20.9351 14.1333
1 8.1187 21.9995 14.921
1 9.51233 22.2568 14.831
2 10.1649 21.6054 14.2177
1 10.1564 23.2184 15.5825
2 11.2159 23.4218 15.4813
1 9.40374 24.0768 16.3658
2 9.87466 24.821 16.9583
1 8.01139 23.8872 16.4934
1 7.36163 22.8548 15.7735
2 6.29264 22.6178 16.0326
1 7.27305 24.7224 17.4679
3 38.5755 24.1233 11.9331
3 38.1104 26.244 11.2974
3 38.3769 26.3899 14.4101
3 38.0398 27.3616 12.4885
3 1.20225 25.9109 14.0114
3 0.584475 27.9126 13.2753
3 1.27779 24.639 12.8518
3 0.681186 25.4494 10.8436
3 32.3466 18.8356 14.8531
3 30.7706 18.6403 13.3374
3 32.6564 20.7338 14.7909
3 31.3189 21.0199 13.043
3 34.7334 20.9781 12.4519
3 32.8332 21.3844 11.3241
3 34.2033 17.6371 12.818
3 32.9523 17.9887 11.0248
3 32.6554 24.0449 20.0179
3 31.5554 25.876 20.7898
3 34.3068 26.4878 21.2409
3 33.7866 28.3533 20.1751
3 34.694 26.3822 17.7692
3 32.8364 27.4722 17.5087
3 32.7029 24.3393 18.2967
3 31.7342 26.2775 17.6873
3 38.09 12.3668 14.5768
3 37.6046 11.4461 12.6337
3 38.216 14.5713 12.2721
3 37.6191 12.6012 11.3703
3 1.00667 13.998 12.8831
3 0.273849 13.2243 10.96
3 0.975878 12.906 14.0045
3 0.191243 10.9623 13.2693
3 4.3029 17.8952 12.4015
3 6.20449 17.08 11.5821
3 4.90667 20.9327 12.9974
3 5.74988 20.2898 11.0878
3 6.13376 20.9664 14.096
3 8.05383 20.1003 13.4981
3 6.84251 17.9851 14.6054
3 7.29139 17.1494 12.626
3 33.7777 13.5679 21.2137
3 32.7435 11.7121 20.6492
3 32.6288 14.5924 20.9633
3 30.6512 13.8303 20.3055
3 32.2989 15.3105 18.2399
3 30.5049 14.0232 18.5084
3 34.3589 12.6323 17.975
3 32.3659 11.9318 17.34
3 39.2501 23.0704 14.4161
3 35.8124 19.4109 14.9493
3 36.1036 24.1333 19.9167
3 39.2611 14.9628 15.4031
3 3.93851 18.8302 15.4633
3 35.257 15.5336 18.9394
4 -0.741662 24.9082 13.512
4 -0.334003 27.1473 11.6303
4 34.0997 19.5088 13.6898
4 31.7655 19.5092 11.5591
4 34.2525 25.2305 19.5632
4 32.1291 27.4588 19.4294
4 39.4072 13.7556 13.7723
4 39.4603 11.6644 11.6388
4 5.25631 19.0582 13.8954
4 7.14828 19.0427 11.8518
4 33.7378 14.1798 19.2267
4 31.3794 12.1817 19.0964
1 1.08897 13.9342 27.0567
1 2.3047 14.5122 27.6691
1 2.85502 13.9487 28.8033
2 2.39561 13.0631 29.2447
1 3.94121 14.5435 29.5015
2 4.27764 14.1701 30.45
1 4.45387 15.7502 28.9887
2 5.28132 16.2146 29.4815
1 4.02639 16.2696 27.7861
1 2.93205 15.6953 27.1113
2 2.55231 16.0852 26.2067
1 4.78169 17.4619 27.2533
1 0.255133 11.2766 24.2501
1 1.0818 10.5008 23.3025
1 1.10839 9.11664 23.3362
2 0.4175 8.59521 23.9418
1 1.9957 8.33352 22.5481
2 1.99432 7.25512 22.6305
1 2.94955 9.02441 21.748
2 3.67611 8.49213 21.1585
1 2.9874 10.4915 21.7654
1 1.99487 11.1527 22.4237
2 1.95931 12.2665 22.3941
1 3.95499 11.3173 20.9814
1 37.4038 11.7712 24.6655
1 36.2198 11.2314 24.0104
1 35.5698 10.0611 24.5023
2 36.0012 9.49687 25.288
1 34.2606 9.73172 24.0977
2 33.8249 8.86678 24.5573
1 33.5767 10.488 23.1509
2 32.5257 10.2091 22.9733
1 34.1925 11.6008 22.5481
1 35.5147 11.9304 22.9439
2 36.1052 12.7307 22.4106
1 33.5214 12.3264 21.4327
1 37.1084 13.6722 26.9711
1 35.7668 14.1696 27.4165
1 34.9362 13.4626 28.301
2 35.1951 12.4553 28.628
1 33.6667 14.0095 28.7441
2 33.0061 13.5218 29.4287
1 33.2414 15.2629 28.2557
2 32.2437 15.6255 28.6256
1 34.0445 15.9519 27.4031
1 35.3016 15.4272 26.9688
2 35.9482 16.0437 26.3671
1 33.6314 17.2674 26.9511
1 7.13383 21.6644 25.1738
1 7.72058 22.8701 24.5515
1 8.76489 23.5341 25.2397
2 9.11708 23.2285 26.1588
1 9.37764 24.6262 24.6727
2 10.1975 25.0354 25.1727
1 8.82987 25.2399 23.5474
2 9.32022 26.238 23.4165
1 7.81664 24.5727 22.8477
1 7.25198 23.4086 23.3482
2 6.45787 22.9001 22.8096
1 7.3276 25.1664 21.558
1 7.18041 17.5297 25.0264
1 7.81405 16.4045 24.3811
1 9.09457 15.9144 24.8041
2 9.63823 16.4986 25.5954
1 9.6709 14.805 24.1586
2 10.6858 14.4999 24.2964
1 8.93502 14.0663 23.2294
2 9.33783 13.1322 22.8383
1 7.74687 14.6225 22.7074
1 7.14826 15.7231 23.3862
2 6.18346 16.1391 23.0012
1 7.0066 13.9025 21.6065
1 4.7524 21.5271 27.4949
1 4.17183 22.7189 28.1732
1 4.94535 23.403 29.113
2 5.77803 22.9459 29.6616
1 4.6391 24.7705 29.4068
2 5.11007 25.2254 30.2322
1 3.57645 25.3993 28.7237
2 3.35496 26.3995 28.9349
1 2.81294 24.6782 27.827
1 3.05996 23.3152 27.624
2 2.47944 22.7893 26.896
1 1.62917 25.2497 27.2195
1 6.93409 13.7271 17.4824
1 7.60772 14.205 16.2509
1 8.40463 13.3212 15.5309
2 8.55356 12.3295 15.8493
1 8.9292 13.7339 14.3101
2 9.46323 13.0511 13.664
1 8.67356 14.9985 13.7519
2 8.86486 15.2395 12.7371
1 7.89947 15.8926 14.4752
1 7.32565 15.4469 15.7018
2 6.70037 16.0959 16.3047
1 7.47087 17.1815 13.8458
1 4.26186 11.6864 17.8369
1 3.49302 10.9781 16.8248
1 3.44146 9.52289 16.835
2 3.87396 8.97745 17.6263
1 2.68488 8.83065 15.9179
2 2.71467 7.70605 15.977
1 1.86612 9.53665 15.0398
2 1.35458 9.00322 14.2032
1 1.89333 10.9442 15.0137
1 2.74417 11.6433 15.8137
2 2.76757 12.682 15.7608
1 1.00948 11.6371 14.0033
1 1.38608 27.5326 24.8886
1 2.49663 28.1619 24.1277
1 3.19941 29.2507 24.6471
2 2.78776 29.8411 25.5463
1 4.30717 29.7642 23.98
2 4.88771 30.5322 24.4154
1 4.81446 29.134 22.8373
2 5.70129 29.5416 22.3817
1 4.21493 28.0395 22.3589
1 2.9956 27.6484 22.9558
2 2.52359 26.8502 22.4838
1 4.83161 27.2777 21.3333
1 37.8249 25.3122 27.337
1 36.7001 24.5937 27.9523
1 36.3246 24.937 29.264
2 36.8209 25.7843 29.7212
1 35.3306 24.1925 29.9158
2 35.0754 24.4602 30.9321
1 34.6944 23.1171 29.3005
2 33.9457 22.5253 29.8247
1 34.9993 22.7866 27.9623
1 36.015 23.5631 27.2924
2 36.296 23.1179 26.3161
1 34.4051 21.5933 27.3161
1 31.5884 18.0371 24.6143
1 30.8187 17.1329 23.7922
1 29.4564 17.0385 23.8943
2 28.9137 17.6378 24.6453
1 28.7236 16.1126 23.1327
2 27.6444 15.9991 23.3009
1 29.3162 15.3438 22.2446
2 28.6631 14.8623 21.5799
1 30.7191 15.3347 22.1116
1 31.4674 16.2447 22.9323
2 32.5372 16.1956 22.9175
1 31.34 14.5205 21.1071
3 0.740091 14.205 25.8591
3 0.453333 13.0524 27.7013
3 -0.422423 12.3242 23.8515
3 0.113404 10.8651 25.4645
3 38.2754 12.4712 24.013
3 37.6561 11.4085 25.8437
3 37.8327 14.4072 26.2395
3 37.5318 12.5465 27.294
3 6.46523 20.8573 24.4641
3 7.36702 21.3331 26.4258
3 5.94078 17.7267 24.8792
3 7.87142 18.2491 25.7958
3 4.79494 17.6632 25.9731
3 5.43053 18.2434 28.0181
3 3.99645 20.68 26.8388
3 6.01501 21.321 27.5584
3 5.69967 13.9598 17.6613
3 7.47263 12.8137 18.2349
3 4.33699 12.9446 17.8279
3 5.02593 10.9977 18.6098
3 3.91171 12.5989 20.9771
3 4.85448 10.7124 20.2424
3 6.51118 14.5431 20.6842
3 6.99696 12.6434 21.6156
3 0.610405 26.7207 24.2958
3 1.33853 27.6645 26.1503
3 0.779311 24.5579 26.5908
3 1.46198 26.5454 27.2438
3 37.9203 25.2537 26.0658
3 38.683 25.9801 28.0047
3 38.1427 26.4123 24.7037
3 38.6981 28.3138 25.6238
3 34.9972 20.9503 26.4491
3 33.2277 21.266 27.6875
3 33.9474 17.698 25.789
3 32.8675 17.9859 27.6754
3 32.8624 18.0677 24.4424
3 31.0107 18.8175 25.4297
3 32.7693 21.0223 24.2758
3 30.948 20.5914 25.4562
3 4.8893 25.9697 17.7032
3 5.71304 27.9721 18.1792
3 5.9081 24.7101 17.5682
3 7.99134 25.4977 18.2298
3 6.83654 24.376 20.7096
3 7.37943 26.4102 21.3385
3 4.18688 26.4569 20.6321
3 6.08531 27.4763 21.0961
3 -0.596771 15.5661 23.7664
3 3.2346 19.6963 24.0413
3 3.77055 15.6723 20.0241
3 -0.33974 23.8166 23.7782
3 35.981 20.0395 24.4424
3 3.80843 23.6567 20.1124
4 39.3857 13.9945 24.9387
4 39.4607 11.641 27.0694
4 4.91377 19.6328 25.2964
4 7.18608 19.4302 27.3406
4 4.84529 13.8929 19.6537
4 6.74556 11.5617 19.7429
4 -0.584894 25.2338 25.1747
4 -0.527012 27.432 27.2375
4 34.0032 19.7772 25.1504
4 31.8656 19.7098 27.174
4 5.17794 25.0464 19.5187
4 7.24342 27.2204 19.3868
2 2.29777 19.702 24.3358
2 3.436 19.3801 23.1564
2 35.6926 18.9392 15.8012
2 36.6421 19.6491 14.6132
2 35.0464 16.4148 19.1272
2 35.9145 15.2166 18.3222
2 -0.682916 14.726 16.22
2 38.7202 15.7632 15.4205
2 2.90185 23.9409 20.3355
2 4.10397 22.8421 20.6116
2 38.4523 22.6133 14.4129
2 -0.266818 22.7134 14.8663
2 3.18575 18.2507 15.1434
2 4.19515 18.9269 16.3703
2 39.5542 23.9434 22.9323
2 0.209869 23.0707 23.9105
2 36.39 24.2082 20.842
2 36.7201 23.6868 19.3012
2 36.2472 20.7967 23.9097
2 36.5559 19.3041 24.662
2 3.7909 16.4097 19.4115
2 3.22188 15.6047 20.7972
2 39.1813 16.3244 23.8299
2 -0.0192572 15.4628 22.9789
1 27.2145 1.53788 25.3732
1 27.7726 2.76413 24.7545
1 28.8697 3.4301 25.3778
2 29.406 2.96702 26.2341
1 29.2796 4.71622 24.9948
2 30.1699 5.05021 25.4577
1 28.6517 5.31012 23.8914
2 29.0648 6.1947 23.549
1 27.6463 4.59817 23.2257
1 27.2299 3.35778 23.6541
2 26.3183 2.95722 23.202
1 27.0466 5.20263 21.9561
1 24.1416 0.779817 27.9264
1 23.2276 1.55676 28.7175
1 23.1655 1.42442 30.1201
2 23.8874 0.817685 30.6929
1 22.1055 2.00573 30.8327
2 21.9722 1.73836 31.8795
1 21.1909 2.8112 30.1266
2 20.4064 3.20779 30.6123
1 21.3131 3.07346 28.7448
1 22.3196 2.36929 28.0219
2 22.4473 2.4763 26.9863
1 20.4908 4.11393 28.1015
1 24.5238 38.2582 27.5931
1 23.7541 37.1725 28.2625
1 23.8524 36.9753 29.6277
2 24.5651 37.5994 30.197
1 23.1339 35.9429 30.2032
2 23.2796 35.8636 31.2619
1 22.3879 35.0675 29.4007
2 21.7183 34.3563 29.8752
1 22.3108 35.2124 28.052
1 22.9525 36.2905 27.5063
2 22.8474 36.4883 26.4738
1 21.4757 34.2616 27.1927
1 26.8891 37.8824 25.2588
1 27.5619 36.7202 24.6146
1 28.8039 36.2089 25.1528
2 29.1673 36.5446 26.1915
1 29.415 35.1313 24.5659
2 30.3003 34.7627 25.0124
1 28.8732 34.5726 23.3948
2 29.4239 33.737 22.9172
1 27.6422 35.0313 22.8671
1 26.9771 36.0793 23.47
2 26.013 36.4253 23.0841
1 27.1485 34.3833 21.6382
1 24.6013 7.30972 18.0116
1 23.7227 7.9959 16.9978
1 23.7369 9.39096 16.8736
2 24.5281 9.91569 17.3638
1 22.8725 10.0473 16.0124
2 22.825 11.094 15.9381
1 21.8842 9.32347 15.3316
2 21.1856 9.90758 14.6879
1 21.8344 7.95009 15.4029
1 22.8223 7.26663 16.2087
2 22.8406 6.19277 16.3802
1 20.9354 7.18418 14.4632
1 24.4952 7.3716 21.7171
1 23.912 7.96115 22.998
1 24.684 8.8928 23.7655
2 25.7367 9.186 23.4145
1 24.3293 9.31107 24.9988
2 25.0053 9.96627 25.6296
1 23.0515 8.93674 25.4881
2 22.8152 9.2895 26.5035
1 22.3346 7.94328 24.8095
1 22.6935 7.58929 23.4899
2 22.0522 6.98079 22.909
1 21.2288 7.23504 25.4032
1 27.1707 5.08653 17.7449
1 27.9517 4.51936 16.6059
1 29.141 5.12213 16.1201
2 29.5227 6.00039 16.5828
1 29.7893 4.62727 14.959
2 30.6274 5.09492 14.5883
1 29.23 3.59316 14.2236
2 29.6823 3.30726 13.3219
1 28.0293 3.01471 14.6276
1 27.3749 3.51416 15.7986
2 26.5141 2.96334 16.2451
1 27.5089 1.78626 13.936
1 16.9238 6.8337 25.5489
1 15.6731 7.42062 24.9484
1 14.8188 8.26429 25.6807
2 15.0977 8.65013 26.7268
1 13.6264 8.7279 25.1628
2 13.0206 9.42505 25.7396
1 13.1793 8.20209 23.9985
2 12.0825 8.37276 23.7666
1 13.9836 7.40194 23.1841
1 15.2893 7.07153 23.6169
2 16.0072 6.56391 22.9286
1 13.4329 6.95906 21.8415
1 17.5155 4.50796 27.8451
1 16.4092 3.72508 28.4574
1 16.3071 3.64211 29.8592
2 16.8825 4.31804 30.5025
1 15.4411 2.77674 30.4752
2 15.322 2.72018 31.5519
1 14.4538 2.14425 29.794
2 13.8497 1.51887 30.3341
1 14.5211 2.15245 28.4168
1 15.4982 2.9337 27.7019
2 15.5204 2.83405 26.5937
1 13.8259 1.03783 27.6471
1 25.173 1.18889 11.6896
1 24.4983 2.2955 10.9601
1 24.9811 2.85247 9.72512
2 25.9573 2.57405 9.26495
1 24.2931 3.89797 9.10627
2 24.6709 4.395 8.239
1 23.1971 4.48767 9.72375
2 22.8316 5.50512 9.30938
1 22.7206 3.99589 10.9304
1 23.3704 2.90113 11.5353
2 23.0848 2.59312 12.5095
1 21.509 4.58284 11.6133
1 27.8906 37.9258 14.0317
1 28.3083 36.5899 14.5554
1 29.2332 35.8161 13.7836
2 29.512 36.1719 12.7506
1 29.608 34.5736 14.2235
2 30.198 33.8714 13.6211
1 29.2583 34.1022 15.464
2 29.4798 33.0753 15.7354
1 28.3522 34.8513 16.2688
1 27.9728 36.1142 15.8277
2 27.344 36.7628 16.429
1 27.6893 34.262 17.4651
1 24.9572 31.9473 21.1774
1 24.1112 31.23 22.1622
1 24.2542 29.8278 22.3129
2 24.6902 29.232 21.5706
1 23.5791 29.1773 23.3083
2 23.7602 28.05 23.3113
1 22.6382 29.8306 24.0843
2 22.0176 29.3677 24.8626
1 22.3331 31.1944 23.898
1 23.1288 31.8958 22.8877
2 22.9417 32.9708 22.8524
1 21.2522 31.8902 24.6633
3 26.5719 0.754061 24.6369
3 27.285 1.32456 26.5796
3 23.8825 0.59996 26.7011
3 25.1635 0.171226 28.4901
3 24.5757 38.3401 26.3042
3 25.2979 39.0524 28.2822
3 25.6177 38.1126 25.0788
3 27.5963 38.5412 26.0832
3 24.7145 6.03776 18.0357
3 25.3152 8.0519 18.7454
3 23.8423 6.4978 21.0171
3 25.7341 7.57899 21.5108
3 26.5433 4.44211 21.0852
3 27.0188 6.46719 21.726
3 25.8833 4.85687 17.9295
3 27.7722 5.84331 18.5499
3 17.2532 5.64263 25.2459
3 17.723 7.47358 26.3751
3 17.64 4.52793 26.5844
3 18.2544 5.29052 28.5596
3 20.3708 4.00801 26.8424
3 19.8625 5.02472 28.7526
3 20.3175 6.80945 24.675
3 21.0812 7.18222 26.6639
3 25.0421 1.10015 12.9484
3 26.0373 0.514225 11.0659
3 26.2964 1.48372 14.1266
3 28.3242 0.94371 13.3831
3 27.3238 38.7583 14.7994
3 27.8024 38.1183 12.7496
3 24.6053 38.7202 12.9417
3 26.4332 38.3084 11.7302
3 27.0693 35.0225 18.2547
3 27.5812 32.9849 17.6376
3 25.8681 34.3864 21.4004
3 27.9463 33.76 20.8435
3 24.9148 33.1793 21.0348
3 25.7728 31.2661 20.526
3 24.3981 33.2455 17.985
3 26.1817 31.9814 17.5368
3 17.7022 4.29592 12.8216
3 18.0288 5.66116 11.1248
3 17.647 5.32963 14.1486
3 18.4431 7.34555 13.6552
3 20.8191 5.98362 14.6146
3 20.1245 7.78415 13.6722
3 20.8864 3.85554 12.4348
3 21.2102 5.78944 11.4627
3 23.575 -0.492814 23.5524
3 23.7979 3.43926 19.9986
3 19.5524 3.95166 23.6579
3 24.6402 -0.44068 16.1425
3 24.427 36.2836 19.3512
3 20.0501 3.30957 15.4415
4 24.9036 -0.422406 25.1957
4 27.005 -0.417872 27.5322
4 25.0208 5.03386 19.8224
4 26.9638 7.4202 19.7792
4 19.2999 5.1119 25.3957
4 19.2173 6.83581 27.6992
4 25.6707 -0.516664 14.2902
4 27.6511 -0.450667 11.8541
4 25.4411 34.374 19.3159
4 27.3501 32.1142 19.4685
4 19.5801 4.5773 13.8661
4 19.559 6.89202 11.8853
1 11.2482 37.9477 13.9159
1 10.5915 36.881 14.6619
1 9.28409 36.4623 14.3056
2 8.69879 37.0429 13.5725
1 8.78804 35.2637 14.8837
2 7.8912 34.8415 14.4752
1 9.57167 34.6111 15.8592
2 9.24553 33.6548 16.2169
1 10.7973 35.0717 16.2541
1 11.3723 36.1741 15.6142
2 12.3755 36.5175 15.7976
1 11.5489 34.3674 17.2992
1 13.7103 37.8738 11.5461
1 14.5786 36.9487 10.7737
1 14.4572 36.8849 9.352
2 13.6858 37.5382 8.87742
1 15.3038 36.0631 8.62044
2 15.2152 36.1207 7.51386
1 16.2825 35.3055 9.2595
2 16.9661 34.7586 8.64174
1 16.3897 35.3326 10.6836
1 15.5367 36.1173 11.4349
2 15.5435 36.1569 12.518
1 17.4717 34.6024 11.3811
1 13.5393 1.52716 11.5905
1 14.2179 2.71477 11.0492
1 13.6065 3.42723 9.9717
2 12.5883 3.16015 9.67539
1 14.186 4.62375 9.51331
2 13.6852 5.09734 8.69723
1 15.4124 5.04647 10.108
2 15.9576 5.85461 9.64684
1 15.9893 4.36655 11.152
1 15.3651 3.18579 11.6635
2 15.9023 2.56046 12.3547
1 17.3626 4.71127 11.674
1 11.3334 1.20589 14.1807
1 10.5513 2.11078 14.9983
1 9.22542 2.45929 14.6267
2 8.75493 2.0024 13.7153
1 8.47615 3.31144 15.3811
2 7.4404 3.49626 15.1668
1 9.07778 3.94153 16.4673
2 8.53655 4.62605 17.1342
1 10.4456 3.66634 16.8357
1 11.1452 2.72988 16.0996
2 12.1113 2.47494 16.4919
1 11.1442 4.45327 17.8968
1 14.5497 31.9036 20.6537
1 15.6979 31.1522 21.2765
1 15.7695 29.7529 21.2966
2 15.1842 29.257 20.5168
1 16.5803 29.053 22.1352
2 16.6292 27.9433 22.0386
1 17.3604 29.7433 23.0645
2 17.985 29.2093 23.7696
1 17.3524 31.1345 23.098
1 16.4743 31.8563 22.1803
2 16.2894 32.8845 22.2867
1 18.082 31.9224 24.0735
1 13.9041 32.1201 17.3578
1 14.5674 31.5376 16.2437
1 14.2232 30.2191 15.9485