2256
 Atoms. Timestep: 0
1 35.9575 12.5065 6.38111
1 34.6338 12.1659 5.93808
1 33.886 13.0583 5.13527
2 34.3439 13.9107 4.70402
1 32.6261 12.697 4.64367
2 32.1434 13.1907 40.0115
1 32.0362 11.4967 5.08229
2 31.0299 11.2513 4.73261
1 32.7007 10.6354 6.04486
1 34.0308 11.0476 6.45388
2 34.6141 10.3855 7.02245
1 32.1176 9.34026 6.46666
1 38.8657 11.9076 9.25794
1 39.1344 11.4406 10.6074
1 39.5899 12.3018 11.5924
2 39.674 13.3793 11.3273
1 39.9289 11.9324 12.9468
2 4.50659 12.6574 13.609
1 39.7281 10.5969 13.2836
2 39.9648 10.2826 14.3579
1 39.1653 9.71007 12.3711
1 38.9446 10.1183 10.9979
2 38.5489 9.40008 10.2543
1 38.9912 8.24569 12.6603
1 4.86465 14.0159 7.21613
1 6.33905 14.3644 7.26839
1 6.80924 15.6914 7.32618
2 6.15132 16.5419 7.43109
1 8.18457 15.9773 7.28299
2 8.45405 17.0312 7.28916
1 9.10851 14.9326 7.13123
2 10.1612 15.2276 7.10424
1 8.7166 13.61 7.05019
1 7.32555 13.3529 7.14681
2 6.98508 12.311 7.04554
1 9.6885 12.5279 6.81058
1 38.6517 13.7482 4.58462
1 38.7921 14.2594 39.3466
1 38.2392 15.4872 39.0583
2 37.7309 15.9755 39.8256
1 38.4892 16.108 37.8113
2 38.022 17.0817 37.5731
1 39.2238 15.4358 36.8472
2 39.4099 15.9353 35.7852
1 39.618 14.0805 37.0818
1 39.4962 13.5733 38.3645
2 39.965 12.6165 38.6003
1 4.40339 13.2653 36.0365
1 30.5886 4.42494 6.32216
1 30.1565 38.8453 6.08668
1 28.9015 38.3432 6.44582
2 28.1961 39.0114 6.91131
1 28.5263 37.0564 6.05558
2 27.6232 36.6187 6.51476
1 29.4272 36.2197 5.36305
2 29.1006 35.1497 5.1938
1 30.6726 36.723 4.90612
1 31.0263 38.0286 5.34122
2 31.9821 38.4198 5.05027
1 31.5978 35.8075 40.1908
1 32.3505 5.69619 8.76391
1 32.7206 5.14711 10.0883
1 31.7046 5.01864 11.0803
2 30.6501 5.22245 10.905
1 32.0785 4.90837 12.4056
2 31.2957 4.9562 13.1913
1 33.4409 5.05234 12.786
2 33.7199 5.18534 13.8599
1 34.4232 5.06986 11.8242
1 34.0791 5.00426 10.456
2 34.7415 5.20009 9.62448
1 35.8007 5.15362 12.1991
1 31.0572 7.25345 40.1047
1 30.8471 7.59057 38.7374
1 29.739 8.293 38.2452
2 29.012 8.61716 38.9303
1 29.5599 8.54755 36.9052
2 28.6264 8.98762 36.644
1 30.4762 8.17625 36.0046
2 30.3755 8.626 34.9762
1 31.6914 7.50061 36.41
1 31.9093 7.35845 37.7442
2 32.8788 6.99172 38.1139
1 32.7649 7.11305 35.4547
1 38.2084 39.3534 14.5469
1 38.0756 37.9394 14.8867
1 37.8534 37.5153 16.2325
2 37.6861 38.1559 17.0846
1 37.7179 36.129 16.4808
2 37.6071 35.7512 17.5089
1 37.8099 35.1343 15.4937
2 37.8317 34.0575 15.7836
1 38.0157 35.5617 14.1644
1 38.1028 36.9475 13.8592
2 38.3917 37.2451 12.9012
1 38.0597 34.6058 13.0219
1 4.80999 5.4607 13.8952
1 6.23511 5.53545 14.1582
1 6.72484 6.48322 15.0869
2 6.12025 7.10398 15.6337
1 8.0595 6.45186 15.413
2 8.46401 7.16957 16.0762
1 8.95825 5.60705 14.6928
2 10.0116 5.56431 14.9482
1 8.48532 4.67999 13.7374
1 7.11957 4.65457 13.4506
2 6.73351 39.8001 12.6658
1 9.41462 39.587 13.0107
1 32.8596 40.0519 34.166
1 32.1042 38.8786 34.5802
1 31.0286 38.48 33.78
2 30.7677 39.0397 32.87
1 30.4087 37.224 33.9875
2 29.5231 36.9907 33.3985
1 30.8202 36.4416 35.0532
2 30.421 35.4642 35.1755
1 31.8605 36.8656 35.9355
1 32.4545 38.1038 35.7012
2 33.2738 38.4178 36.3765
1 32.3099 35.9433 36.9339
1 35.1167 8.72745 33.314
1 35.6453 10.0849 33.0438
1 34.7907 11.0619 32.6088
2 33.7733 10.7795 32.3275
1 35.2449 12.38 32.5797
2 34.5627 13.1579 32.3269
1 36.576 12.672 32.7415
2 36.8397 13.6819 32.7469
1 37.4866 11.6824 33.1911
1 36.9819 10.3579 33.261
2 37.5701 9.54727 33.4737
1 38.8742 11.9049 33.4956
1 7.50919 12.3257 35.7784
1 8.63504 12.6613 36.7085
1 9.49179 13.7506 36.3688
2 9.40366 14.3487 35.4853
1 10.4579 14.1903 37.2543
2 11.1484 14.9777 37.0338
1 10.7785 13.4105 38.3416
2 11.6692 13.7137 38.8393
1 10.0329 12.2964 38.6863
1 8.90173 11.9201 37.9045
2 8.34341 11.0098 38.1606
1 10.4416 11.471 39.8412
3 36.7278 11.5711 6.81815
3 36.5081 13.5806 6.05663
3 39.5626 11.5184 8.32563
3 37.9646 12.7703 9.112
3 4.58309 12.7823 7.12964
3 39.696 14.8489 7.1645
3 39.3101 12.6643 4.88233
3 37.864 14.2788 5.35272
3 31.8458 4.72696 6.48781
3 29.7018 5.35258 6.32305
3 32.7663 5.12623 7.7225
3 31.684 6.77882 8.65302
3 32.8458 8.54387 7.13778
3 31.0125 8.95578 6.01925
3 32.1127 6.56831 40.4508
3 30.4051 7.84681 5.00639
3 38.4542 39.6144 13.3488
3 37.943 4.47387 15.3642
3 40.1712 4.62613 13.0596
3 39.8992 6.36087 14.3439
3 38.5955 7.42308 11.7231
3 39.1708 7.83046 13.8375
3 36.7278 4.57458 11.4807
3 36.1858 5.94277 13.121
3 33.8955 4.58149 34.8976
3 32.4818 4.95995 33.2355
3 33.6177 6.21715 35.8105
3 32.8285 7.59013 34.2409
3 35.9146 7.79045 33.5956
3 33.8842 8.5007 33.3321
3 36.5277 4.65017 34.1799
3 35.4592 5.20764 32.3235
3 39.5534 10.9505 33.9212
3 39.4218 13.0853 33.4361
3 5.00459 12.1541 36.2967
3 40.1862 13.7196 34.8402
3 6.59921 11.4865 36.1566
3 7.36549 12.877 34.6755
3 6.81047 10.3583 33.186
3 5.99159 11.8602 31.7458
3 34.7859 33.4463 37.7646
3 33.2844 31.8785 38.2997
3 34.2745 34.2638 4.79565
3 32.3587 33.265 4.6675
3 32.6288 36.3064 39.5548
3 31.4131 34.5386 40.2338
3 33.0949 36.3405 37.8658
3 31.7599 34.819 36.9978
3 39.0784 9.59492 5.72526
3 35.0347 6.50907 6.06013
3 39.2536 4.80361 9.81562
3 36.2726 6.71081 36.7567
3 5.01122 8.68332 35.3808
3 36.0744 36.1214 38.6937
4 38.788 11.5157 6.4363
4 37.7541 14.2085 7.53661
4 32.9803 6.63893 6.33338
4 30.3104 7.19936 7.11205
4 38.5568 5.30615 11.8118
4 37.7764 6.33286 14.418
4 35.4791 6.16051 34.9151
4 33.7036 6.46949 32.6299
4 5.50043 10.6241 34.7932
4 5.80741 13.1584 33.3366
4 34.3216 35.0803 38.9481
4 31.8987 33.3349 38.6275
1 8.10072 32.2292 38.534
1 9.53624 32.4682 38.7918
1 10.348 31.339 39.1454
2 10.0543 30.3397 39.0424
1 11.7167 31.5344 39.4072
2 12.2981 30.6111 39.7005
1 12.2302 32.8064 39.4281
2 13.2598 32.9322 39.7196
1 11.5105 33.9243 38.9703
1 10.1144 33.7608 38.7351
2 9.45498 34.5931 38.3641
1 12.2322 35.2524 38.8475
1 6.33215 33.0474 35.5195
1 6.54322 33.594 34.1736
1 6.53507 32.7343 32.9944
2 6.44847 31.6514 33.1282
1 6.88493 33.2872 31.7511
2 6.86261 32.6207 30.8293
1 7.14226 34.6224 31.6578
2 7.38466 35.0833 30.6992
1 7.15006 35.4413 32.7411
1 6.79878 35.0031 34.0195
2 6.80576 35.6793 34.8347
1 7.43847 36.8992 32.5676
1 39.1704 30.8005 37.3136
1 37.6931 30.5182 37.1694
1 37.2445 29.1902 37.0786
2 37.9648 28.3386 37.0633
1 35.8579 28.8877 36.987
2 35.6114 27.8797 36.8689
1 34.9651 29.8983 37.1759
2 33.9314 29.5822 37.2524
1 35.3648 31.2116 37.309
1 36.7466 31.5051 37.3216
2 37.0656 32.4779 37.5478
1 34.39 32.2384 37.7771
1 5.56781 31.5124 40.3656
1 5.67628 31.2142 5.72087
1 6.42955 30.1126 6.16624
2 7.00762 29.455 5.54583
1 6.40144 29.7539 7.48148
2 6.94549 28.8783 7.78625
1 5.65125 30.4935 8.43628
2 5.66169 30.2289 9.4839
1 4.92604 31.6172 7.99449
1 4.92613 32.0214 6.63131
2 40.0053 32.7183 6.30367
1 39.8298 32.2245 8.9187
1 13.6931 40.0872 39.3013
1 14.0512 5.66955 39.1414
1 15.111 6.17412 38.3871
2 15.8028 5.52457 37.9446
1 15.4269 7.56306 38.357
2 16.2068 7.97141 37.7625
1 14.5109 8.46615 39.018
2 14.7074 9.49191 38.9777
1 13.4494 7.94874 39.7802
1 13.2413 6.57739 39.8373
2 12.3682 6.23119 40.2964
1 12.4982 8.91913 4.41761
1 13.1818 38.1637 36.9374
1 12.9534 38.7343 35.565
1 14.0277 39.1 34.7973
2 15.0935 39.1995 35.1239
1 13.8226 39.3647 33.4455
2 14.6559 39.6262 32.759
1 12.5395 39.3624 32.9126
2 12.4343 39.6205 31.9022
1 11.4184 39.0197 33.6704
1 11.6731 38.6307 35.0105
2 10.8731 38.5181 35.6083
1 10.0235 39.1223 33.1222
1 14.712 37.4534 5.57694
1 15.1422 37.472 7.03743
1 16.4879 37.5351 7.4363
2 17.2672 37.5861 6.70464
1 16.8055 37.557 8.78182
2 17.8447 37.5448 9.12874
1 15.8276 37.5548 9.81145
2 16.0646 37.5336 10.8454
1 14.4727 37.4671 9.40707
1 14.1329 37.4886 8.01841
2 13.1666 37.4625 7.67719
1 13.3129 37.6039 10.3916
1 7.39149 5.86745 30.8895
1 7.04316 7.22404 30.4093
1 6.75615 7.54895 29.0789
2 6.63837 6.73874 28.32
1 6.46478 8.86658 28.7181
2 6.16165 9.08285 27.6335
1 6.4556 9.91971 29.6143
2 6.25798 10.9457 29.2744
1 6.74794 9.6755 30.9991
1 6.95031 8.30252 31.3787
2 7.06874 8.0024 32.4007
1 6.58861 10.7304 31.9989
1 5.16951 39.0391 32.1046
1 39.5743 38.7537 31.7755
1 39.1536 38.041 30.6163
2 39.8069 37.4555 30.0618
1 37.7515 37.9773 30.3236
2 37.4315 37.3951 29.4631
1 36.8296 38.8018 30.9734
2 35.8058 38.8491 30.6726
1 37.2495 39.4801 32.129
1 38.5997 39.3278 32.5655
2 38.9257 39.8704 33.4738
1 36.3724 4.52962 32.8913
1 11.5033 4.87912 10.8982
1 11.7369 6.31101 10.8826
1 12.5478 6.98452 11.7752
2 13.0305 6.44565 12.644
1 12.797 8.34869 11.6643
2 13.5344 8.89622 12.208
1 12.309 9.07823 10.539
2 12.6702 10.0578 10.3702
1 11.534 8.43865 9.61555
1 11.2102 7.05067 9.80919
2 10.6379 6.50104 9.05578
1 11.1915 9.14711 8.40792
1 9.26851 36.3936 11.5678
1 8.5205 35.1686 11.7184
1 9.1495 33.9923 12.0547
2 10.1828 33.977 12.1549
1 8.47439 32.8484 12.4549
2 8.97151 32.0203 12.8696
1 7.092 32.8284 12.331
2 6.59727 31.9299 12.6161
1 6.40828 33.9433 11.7991
1 7.13972 35.1558 11.5518
2 6.64363 36.1212 11.3066
1 4.95868 33.7572 11.5524
1 35.9386 33.7304 9.67999
1 34.6788 33.4884 8.98449
1 33.6321 32.8177 9.57643
2 33.7019 32.5249 10.6402
1 32.4514 32.5028 8.86316
2 31.6366 31.9902 9.40169
1 32.3725 32.688 7.45783
2 31.4832 32.3733 6.94013
1 33.4549 33.2538 6.78131
1 34.5846 33.6971 7.59193
2 35.4214 34.1022 7.10861
1 33.3715 33.5774 5.34332
3 7.40145 33.1668 38.0194
3 7.53632 31.0766 38.6928
3 6.75146 33.663 36.5745
3 5.88646 31.9049 35.6495
3 39.5163 31.9805 37.545
3 40.0309 29.8904 37.2898
3 5.22437 32.6528 39.9955
3 6.00066 30.7404 39.4528
3 12.4952 39.6824 39.6209
3 14.5833 39.1925 39.0058
3 12.2431 37.6043 37.5724
3 14.3506 38.1701 37.4336
3 11.5401 36.2686 38.4396
3 13.3555 35.4247 39.4191
3 13.4832 37.384 5.30504
3 15.5761 37.6009 4.68751
3 7.4988 5.59639 32.1298
3 7.463 4.91141 30.0461
3 5.51791 39.2824 33.3368
3 6.05358 38.83 31.1665
3 7.84772 37.6918 33.5035
3 7.16413 37.381 31.4367
3 9.0622 38.6757 33.8038
3 9.73436 39.8138 32.1052
3 10.6614 40.1879 10.1024
3 11.8326 40.0576 11.9484
3 12.1394 37.831 9.93465
3 13.4573 37.6719 11.6329
3 8.67625 37.5112 11.5763
3 10.552 36.3907 11.56
3 8.97637 38.8711 12.0648
3 10.6562 39.6826 13.2169
3 40.0009 34.7732 11.2394
3 4.45021 32.5999 11.4603
3 39.1956 33.255 8.55974
3 39.8418 31.923 10.1864
3 36.5103 34.8644 9.5418
3 36.5099 32.7837 10.2056
3 38.3132 35.0847 11.8657
3 37.9837 33.3435 13.2122
3 9.29374 11.3726 6.39079
3 10.9502 12.767 6.88372
3 9.56187 11.0136 4.50428
3 11.6873 11.3255 40.1769
3 11.6656 8.39686 5.25525
3 12.5395 10.1497 40.322
3 10.0004 9.19422 8.0216
3 12.1218 9.62702 7.65602
3 4.64633 35.273 38.0544
3 10.3311 37.5499 4.71102
3 7.81958 5.04882 35.4179
3 9.1222 37.7741 8.69866
3 39.0817 36.44 8.63577
3 8.29691 8.11764 5.39006
4 5.29484 33.2903 38.054
4 6.03723 30.4599 37.2246
4 12.1273 37.7242 39.7972
4 14.7191 36.9598 38.996
4 7.41203 39.9102 33.6119
4 8.18412 39.0632 30.8731
4 10.0945 38.3305 10.3389
4 11.6954 37.9404 12.5824
4 38.6188 34.8579 9.71356
4 38.2156 32.2288 11.371
4 9.94954 9.37067 5.93356
4 12.2389 11.1629 6.20273
2 10.1416 38.0833 5.50672
2 9.74365 36.7735 4.48991
2 35.5597 6.34121 6.86333
2 35.3768 6.91994 5.26318
2 36.7721 35.7059 38.1523
2 36.3204 36.8793 39.1957
2 36.7912 6.0244 37.279
2 36.3034 7.64021 36.9732
2 8.22354 7.71018 4.51868
2 7.68112 7.87296 6.08132
2 39.8731 9.38329 5.2164
2 38.4373 8.92884 5.96908
2 40.1401 8.64437 36.0828
2 5.30861 7.83975 35.0006
2 8.17553 37.7378 8.69543
2 9.65064 37.6883 7.8453
2 40.0142 5.31102 9.41601
2 38.7002 40.0079 9.32433
2 38.8146 37.3874 8.90519
2 39.3722 36.2123 7.70736
2 7.15458 5.43232 35.9934
2 8.72874 4.99773 35.8312
2 39.6984 35.5309 38.5718
2 4.95571 35.844 37.3576
1 31.6158 19.938 17.161
1 30.5842 19.8593 18.1616
1 29.2218 19.8399 17.8787
2 28.8433 19.9624 16.8656
1 28.2567 19.6695 18.8884
2 27.1839 19.7232 18.5949
1 28.6604 19.5514 20.1928
2 27.926 19.4282 20.9527
1 30.0179 19.7076 20.5301
1 30.9631 19.7943 19.5078
2 32.0487 19.7834 19.7016
1 30.4802 19.7116 21.9097
1 33.5536 23.1009 15.6205
1 33.2473 24.525 15.5592
1 32.9296 25.2059 14.3785
2 32.9597 24.839 13.3446
1 32.5906 26.5536 14.4723
2 32.2636 27.0386 13.6097
1 32.6389 27.2508 15.668
2 32.1591 28.2436 15.7416
1 32.8033 26.4478 16.8555
1 33.2663 25.162 16.7952
2 33.4302 24.6199 17.7278
1 32.5832 27.0714 18.2002
1 35.5556 21.2941 13.9099
1 36.5836 21.8639 13.006
1 36.0647 22.5472 11.8607
2 34.9927 22.5398 11.6106
1 37.0134 23.2945 11.0747
2 36.6219 23.8749 10.1922
1 38.3619 23.3246 11.3873
2 39.0122 24.0312 10.7957
1 38.7888 22.7064 12.5766
1 37.9528 21.8569 13.2944
2 38.2538 21.4277 14.2318
1 40.1857 22.8978 12.959
1 35.1759 18.2314 15.0845
1 35.8677 17.0679 14.6343
1 35.249 15.9529 14.0875
2 34.2048 15.9257 13.8463
1 35.9287 14.7209 14.0313
2 35.3559 13.8586 13.7406
1 37.328 14.7061 14.2534
2 37.8318 13.728 14.0917
1 37.9666 15.8073 14.7023
1 37.279 17.0223 14.8489
2 37.8025 17.8857 15.2435
1 39.354 15.6877 15.0853
1 32.275 20.5816 26.6519
1 32.666 20.8479 28.0447
1 31.8939 21.6908 28.855
2 31.0202 22.1609 28.4331
1 32.3723 21.9483 30.1647
2 31.8842 22.6449 30.8414
1 33.6065 21.3691 30.5552
2 33.9448 21.7187 31.5624
1 34.377 20.5654 29.7445
1 33.9064 20.3148 28.4685
2 34.5859 19.7405 27.8603
1 35.6583 20.0413 30.2398
1 30.443 22.2971 23.4655
1 29.8857 23.5856 22.9591
1 28.5986 23.9292 23.2155
2 28.002 23.144 23.6352
1 28.1729 25.2696 23.0302
2 27.1385 25.5245 23.1463
1 28.9928 26.2247 22.4564
2 28.6643 27.1896 22.2189
1 30.289 25.8359 22.0917
1 30.7492 24.5282 22.3247
2 31.7225 24.2481 22.0287
1 31.1924 26.7949 21.4337
1 32.4236 17.7518 23.637
1 32.8192 16.4094 23.2748
1 31.9232 15.5873 22.581
2 30.9021 15.9469 22.2832
1 32.2677 14.3006 22.272
2 31.6299 13.7185 21.6469
1 33.5107 13.7696 22.7651
2 33.7869 12.6942 22.6006
1 34.3686 14.6017 23.5413
1 34.0024 15.9284 23.8634
2 34.6364 16.5951 24.463
1 35.6047 14.0491 24.0356
1 33.0937 28.5819 23.0881
1 33.229 28.7937 24.525
1 32.1318 28.993 25.3515
2 31.1139 28.9018 24.8846
1 32.2586 29.0893 26.7779
2 31.437 29.0323 27.4319
1 33.4829 29.2624 27.2659
2 33.5764 29.3604 28.3251
1 34.5955 29.096 26.466
1 34.4597 28.9013 25.1049
2 35.2785 28.7775 24.4408
1 35.9544 29.1055 27.003
1 34.1098 30.8232 20.1496
1 35.2059 31.7888 20.0714
1 34.8958 33.1786 20.1737
2 33.8805 33.5386 20.4233
1 35.9473 34.0566 20.1039
2 35.7714 35.1063 20.3283
1 37.26 33.6587 19.7822
2 38.021 34.4095 19.6907
1 37.558 32.2562 19.6506
1 36.5314 31.327 19.8425
2 36.6708 30.2089 19.801
1 38.9096 31.7733 19.4956
1 38.12 14.051 26.6244
1 38.3304 14.5195 28.0181
1 38.7782 13.5593 28.9787
2 38.8166 12.5587 28.7106
1 38.9428 13.9895 30.2888
2 39.248 13.2261 30.9856
1 38.8383 15.3155 30.6527
2 38.9942 15.4878 31.7044
1 38.4402 16.2599 29.7129
1 38.1756 15.8692 28.3807
2 37.7987 16.5891 27.6776
1 38.2225 17.6259 30.1363
1 38.1903 12.202 21.7834
1 38.4661 11.7782 20.3962
1 38.0339 10.5587 19.8471
2 37.5625 9.81886 20.4442
1 38.2468 10.3582 18.5113
2 37.9297 9.38843 18.0904
1 38.9203 11.3042 17.7228
2 39.1154 11.0967 16.7045
1 39.3716 12.5074 18.2433
1 39.0721 12.7476 19.5735
2 39.3885 13.6843 19.9844
1 40.2119 13.4961 17.4794
1 6.2089 16.4813 13.8659
1 6.40395 17.38 12.766
1 6.44273 16.9078 11.4587
2 6.42075 15.8403 11.2113
1 6.68291 17.8104 10.4586
2 6.8292 17.406 9.45542
1 6.84265 19.1452 10.6528
2 7.15745 19.8222 9.84013
1 6.76793 19.6847 11.9705
1 6.48469 18.7613 13.0069
2 6.23754 19.1927 13.929
1 6.80773 21.1282 12.3048
3 32.8185 19.6215 17.4261
3 31.3163 20.315 15.9787
3 34.1422 22.5472 16.5813
3 33.1838 22.3575 14.6129
3 35.8886 20.6531 14.9395
3 34.3489 21.5744 13.765
3 35.8218 19.2216 15.5854
3 33.962 18.4446 14.9567
3 33.135 20.0602 25.8962
3 31.1201 20.8718 26.2573
3 31.6877 22.1881 23.4601
3 29.6777 21.3536 23.9156
3 31.71 19.7613 22.1473
3 29.6335 19.9367 22.8377
3 32.8601 18.7297 22.9204
3 31.5181 17.9351 24.494
3 33.8936 27.7814 22.5151
3 32.2564 29.2242 22.3374
3 34.3719 29.596 20.1733
3 32.9346 31.1304 20.3824
3 32.7137 26.3869 19.3023
3 32.5112 28.3413 18.3261
3 32.2699 26.3271 20.8862
3 30.9983 28.0531 21.5085
3 37.5502 14.8452 25.8313
3 38.3705 12.8548 26.2789
3 36.5038 14.8317 24.5606
3 35.9544 12.8629 23.7133
3 37.9359 13.4175 22.0238
3 38.4866 11.3684 22.7431
3 40.1387 13.5027 24.4257
3 39.5891 11.472 23.8421
3 4.84515 14.5476 17.9927
3 4.42794 13.4111 16.2078
3 39.9878 16.7542 15.5159
3 39.9038 14.5216 15.2274
3 5.79163 16.9324 14.9674
3 6.40718 15.241 13.7285
3 6.91052 17.1358 17.8228
3 7.50633 15.2896 16.7762
3 40.056 20.231 31.1747
3 39.2669 20.5483 33.2166
3 37.9837 22.1515 29.8627
3 37.1987 21.6898 31.9461
3 36.5348 19.5801 29.4452
3 36.0121 20.4057 31.4332
3 37.596 18.4324 29.3473
3 38.5936 18.0499 31.2566
3 35.5249 20.3579 18.6596
3 34.6258 21.4483 23.3669
3 35.8574 26.7094 20.2714
3 39.0644 16.1071 22.7967
3 39.5023 17.3424 17.8912
3 39.7374 20.0512 27.8
4 34.6231 20.5016 16.7504
4 32.8822 20.2229 14.5458
4 32.8481 20.5352 23.8395
4 30.3147 19.5867 24.8778
4 33.9651 27.526 20.5489
4 31.7903 29.4099 20.1555
4 38.3778 14.4491 23.8169
4 37.5929 11.8665 24.5994
4 5.295 16.336 17.075
4 6.19934 14.2354 15.4386
4 38.6367 20.2111 29.5778
4 37.7197 19.5877 32.3589
1 12.2944 24.3628 27.8855
1 13.3294 24.5285 26.8657
1 14.6481 24.6132 27.2683
2 14.9229 24.5367 28.347
1 15.7163 24.5675 26.3655
2 16.7314 24.4814 26.6631
1 15.5035 24.5789 25.0211
2 16.3691 24.6082 24.342
1 14.1542 24.7056 24.5352
1 13.1198 24.5387 25.4412
2 12.0822 24.7011 25.1408
1 13.8318 24.7229 23.0723
1 11.3486 21.6062 29.2956
1 11.773 20.1276 29.1994
1 12.309 19.4256 30.2496
2 12.2902 19.9425 31.1808
1 12.6705 18.078 30.1253
2 12.9696 17.5822 31.0039
1 12.3897 17.407 28.8823
2 12.6209 16.3669 28.7588
1 11.9255 18.2001 27.778
1 11.7206 19.5748 27.9299
2 11.3241 20.1526 27.0917
1 11.3491 17.4536 26.5968
1 8.88919 22.301 31.0879
1 8.03799 21.6557 32.132
1 8.48147 21.3293 33.468
2 9.50291 21.3755 33.7499
1 7.64022 20.9318 34.449
2 8.04032 20.7581 35.4382
1 6.33292 20.6769 34.0954
2 5.61809 20.21 34.8194
1 5.8409 20.9189 32.7906
1 6.71532 21.3844 31.8055
2 6.34282 21.571 30.8222
1 4.43483 20.5444 32.3665
1 8.63972 26.0153 30.1262
1 7.76695 27.1104 30.5595
1 7.9008 27.6779 31.8792
2 8.71805 27.3627 32.4599
1 6.89613 28.5239 32.4221
2 6.99511 29.0487 33.3788
1 5.82158 28.8234 31.6242
2 5.04552 29.4195 32.1168
1 5.72737 28.3813 30.2874
1 6.5856 27.4147 29.8501
2 6.40315 26.9719 28.8679
1 4.55339 28.7926 29.5244
1 12.3986 23.5852 18.3963
1 12.1503 23.1825 17.0111
1 13.1826 22.8124 16.1448
2 14.1644 22.873 16.4972
1 12.9426 22.398 14.8296
2 13.8546 22.3084 14.2638
1 11.694 22.5477 14.3219
2 11.5566 22.4553 13.2224
1 10.6334 22.9652 15.1604
1 10.8555 23.2243 16.4882
2 10.0824 23.298 17.2238
1 9.23459 23.0074 14.6579
1 13.3161 22.2443 21.3574
1 13.7634 20.858 21.7219
1 14.9061 20.3458 21.0379
2 15.604 20.958 20.5165
1 15.2071 18.9462 21.0616
2 16.0364 18.5296 20.4915
1 14.3593 18.1283 21.8408
2 14.527 17.0695 21.9239
1 13.2697 18.6579 22.6225
1 12.9414 20.0103 22.5279
2 12.0805 20.4214 23.0262
1 12.4086 17.7929 23.4292
1 11.6375 27.0622 20.8715
1 11.2539 28.4768 20.7837
1 12.3125 29.4092 20.6842
2 13.2762 29.1379 20.948
1 11.9715 30.6488 20.1163
2 12.7051 31.4264 19.9657
1 10.6155 30.9679 19.7669
2 10.3655 31.8506 19.228
1 9.56733 30.0418 19.9791
1 9.91719 28.8411 20.4596
2 9.18605 28.0642 20.6595
1 8.13815 30.368 19.6597
1 10.4458 15.9908 21.7843
1 10.4657 15.9429 20.2865
1 11.5409 15.5463 19.4565
2 12.4604 15.2916 19.9011
1 11.4611 15.4583 18.0797
2 12.3643 15.1548 17.4701
1 10.2537 15.8186 17.4477
2 10.1305 15.6645 16.36
1 9.15652 16.219 18.205
1 9.26138 16.2315 19.5901
2 8.4806 16.6633 20.2469
1 7.80193 16.2752 17.5432
1 9.37343 13.8241 24.7013
1 8.33978 12.7143 24.855
1 8.77682 11.4063 24.7362
2 9.82402 11.206 24.8458
1 7.90088 10.3635 24.5884
2 8.26008 9.38674 24.5435
1 6.53246 10.6225 24.4372
2 5.86751 9.83728 24.0464
1 6.0586 11.9605 24.4443
1 6.97192 12.9719 24.7933
2 6.55672 13.9275 24.9095
1 4.65758 12.3105 24.222
1 5.49625 29.8747 16.604
1 5.37192 29.3402 15.2799
1 4.94684 30.1163 14.196
2 4.74669 31.1467 14.3508
1 4.73627 29.5588 12.9271
2 4.3776 30.1576 12.0962
1 5.05857 28.1706 12.7323
2 4.8735 27.7593 11.6769
1 5.53246 27.3517 13.8148
1 5.63113 27.9493 15.0865
2 6.00902 27.3153 15.9007
1 5.97229 25.9414 13.6547
1 5.63182 31.4273 21.4391
1 5.48505 31.7931 22.8358
1 5.67626 33.0879 23.2122
2 5.91626 33.872 22.4619
1 5.57876 33.4946 24.5772
2 5.80026 34.5481 24.7637
1 5.06861 32.5547 25.4911
2 4.82451 32.9029 26.5571
1 4.79644 31.1879 25.0927
1 5.07372 30.8456 23.7766
2 4.87676 29.9019 23.3763
1 40.0207 30.2802 25.9953
1 37.5528 27.2429 29.367
1 36.9962 26.2168 30.3013
1 36.0394 26.5936 31.2511
2 35.5617 27.5332 31.2922
1 35.5914 25.5875 32.2223
2 34.8326 25.8901 32.9589
1 36.0875 24.2682 32.1649
2 35.7588 23.5434 32.8971
1 37.0071 23.9299 31.1668
1 37.4433 24.9071 30.2489
2 38.2205 24.6181 29.5635
1 37.4847 22.541 30.9755
3 11.2145 23.7336 27.5531
3 12.4559 24.7796 29.098
3 10.8918 22.1846 28.2295
3 11.3557 22.2081 30.4047
3 8.39097 22.6439 29.9559
3 10.1203 22.569 31.315
3 8.64648 25.5745 28.9055
3 9.43878 25.5232 30.9706
3 11.5785 24.2013 18.9795
3 13.4783 23.2444 19.0224
3 12.3864 22.828 21.9715
3 13.9141 22.9001 20.4465
3 12.6339 24.3924 22.7571
3 14.7046 25.0761 22.1735
3 10.8477 26.2783 21.4963
3 12.7149 26.6256 20.336
3 9.60784 16.6631 22.3263
3 11.4444 15.4927 22.4538
3 9.03304 15.0215 24.8627
3 10.5588 13.5801 24.3836
3 10.8321 18.119 25.6137
3 11.5224 16.1991 26.449
3 11.4273 18.2151 24.0839
3 12.544 16.5195 23.2691
3 5.83898 29.1019 17.5939
3 5.17891 31.1029 16.8085
3 7.19875 29.5622 19.9251
3 7.89307 31.4015 19.0433
3 6.04211 30.2908 21.1143
3 5.37604 32.3014 20.5364
3 39.1165 30.4974 19.2696
3 39.9236 32.5855 19.5303
3 4.4586 29.0549 25.9256
3 39.2129 30.6967 26.8857
3 40.0408 28.1092 28.4932
3 39.7986 29.8571 29.8879
3 38.5542 26.9468 28.6128
3 37.0006 28.4189 29.3323
3 36.9563 28.8435 26.2391
3 36.1861 29.2669 28.2694
3 4.80681 22.3577 14.0204
3 5.13173 23.6424 12.2569
3 6.55832 21.5209 13.5286
3 7.23908 21.9241 11.4545
3 8.35404 22.3946 15.2939
3 8.91683 23.6722 13.6095
3 6.60596 25.3822 14.5739
3 5.72674 25.3109 12.5995
3 7.9302 23.9178 26.6777
3 9.55509 23.3729 21.2987
3 7.86944 18.0048 24.5932
3 4.55287 27.4617 19.9255
3 38.4558 26.2282 25.7079
3 6.44708 22.8742 16.8661
4 9.24242 23.6833 28.4244
4 11.0756 24.3366 30.6364
4 11.3272 24.2955 21.0566
4 14.0582 25.0203 20.2094
4 9.65347 17.0288 24.3136
4 11.8876 15.224 24.703
4 5.11064 29.4371 19.426
4 5.9174 32.1055 18.5033
4 38.7765 27.9607 26.7596
4 38.0628 30.1969 28.5559
4 6.58721 23.1884 14.8072
4 7.3057 23.9024 12.1635
2 9.26997 22.9499 20.49
2 8.90507 23.3944 22.0659
2 34.7467 22.0788 22.6518
2 35.4237 21.1804 23.775
2 39.5875 20.7532 27.1728
2 4.54926 19.3785 27.7032
2 38.5152 16.8048 22.4532
2 39.8581 16.5162 23.1866
2 5.63105 22.4232 17.1769
2 7.01257 23.437 17.4786
2 34.9705 20.0712 19.3939
2 36.4968 20.1965 18.6286
2 38.9835 16.6301 18.3639
2 39.5261 18.3204 18.044
2 39.4401 27.3629 20.1422
2 4.97388 26.7123 19.4086
2 36.3204 26.4149 21.0531
2 36.3711 26.9166 19.473
2 37.8422 26.1871 24.9837
2 39.0245 25.4786 25.8802
2 7.27401 17.7855 23.8552
2 7.60189 18.6019 25.2733
2 7.1752 23.318 26.4334
2 8.0816 24.7026 26.1449
1 30.8137 9.51509 21.3341
1 31.8649 8.64819 21.8647
1 33.0985 9.18241 22.2372
2 33.2428 10.2085 22.1412
1 34.1244 8.3671 22.8655
2 35.1167 8.80023 23.0384
1 33.8755 7.01694 22.9742
2 34.673 6.41385 23.331
1 32.6086 6.44169 22.7123
1 31.6379 7.24786 22.1103
2 30.6882 6.81398 21.9192
1 32.3343 5.05167 23.0636
1 28.1796 9.5762 17.9041
1 28.2503 8.83782 16.5861
1 28.9391 9.38667 15.5142
2 29.1059 10.5162 15.4832
1 29.3933 8.59625 14.4357
2 29.9477 9.1131 13.6502
1 29.2491 7.19587 14.4805
2 29.7403 6.66134 13.6645
1 28.5298 6.60154 15.5588
1 28.0526 7.43118 16.5863
2 27.5648 7.02216 17.3852
1 28.495 5.12851 15.7152
1 27.7846 13.299 20.1475
1 26.734 14.3356 20.1728
1 27.0973 15.6456 20.5143
2 28.1303 15.9797 20.5247
1 26.1231 16.5978 20.7157
2 26.3876 17.6703 20.8681
1 24.7501 16.3183 20.5715
2 23.9955 16.9844 20.7543
1 24.3576 14.9783 20.3894
1 25.3653 13.9913 20.1885
2 25.0572 13.0024 19.93
1 22.9556 14.551 20.3961
1 28.5403 11.5947 22.6467
1 28.5381 11.8653 24.1032
1 29.6257 12.5181 24.7078
2 30.4811 12.7081 24.0914
1 29.5521 12.974 26.0044
2 30.3488 13.5169 26.3586
1 28.4013 12.6882 26.7485
2 28.2779 13.2445 27.6535
1 27.3143 11.9683 26.2546
1 27.4243 11.5305 24.8629
2 26.5585 11.0755 24.3808
1 26.1532 11.6932 27.1058
1 31.0869 36.0416 23.2642
1 30.8695 34.5614 23.2422
1 31.9399 33.714 23.5925
2 32.9392 34.0953 23.712
1 31.666 32.4051 23.9764
2 32.4907 31.7793 24.3337
1 30.3615 31.8758 23.9288
2 30.1478 30.8483 24.1402
1 29.3109 32.7045 23.5657
1 29.5184 34.0378 23.2754
2 28.7214 34.753 23.1052
1 27.9 32.2957 23.877
1 32.2678 38.2535 21.3962
1 32.6704 38.0948 19.9542
1 34.0456 38.0536 19.6211
2 34.8756 38.1949 20.3624
1 34.389 37.958 18.2781
2 35.4552 37.8961 17.9565
1 33.4114 37.8497 17.2961
2 33.7887 37.6848 16.2932
1 32.0258 37.9333 17.6089
1 31.6728 37.9894 18.97
2 30.6029 37.9923 19.2779
1 30.9214 38.0492 16.6251
1 30.5917 39.009 26.2674
1 30.1958 39.2974 27.6633
1 31.1657 39.8657 28.5655
2 32.2143 4.42174 28.2494
1 30.7213 40.1232 29.8367
2 31.4346 4.83925 30.5743
1 29.4547 39.7676 30.2667
2 29.1792 39.8727 31.299
1 28.5025 39.2975 29.329
1 28.8317 39.1451 28.0089
2 28.1091 38.8498 27.2654
1 27.1025 39.2066 29.8314
1 27.1517 36.1657 15.3849
1 26.5017 34.8579 15.2581
1 27.2465 33.7477 14.8561
2 28.2463 33.8163 14.565
1 26.6964 32.4927 14.9611
2 27.2449 31.6457 14.6998
1 25.3154 32.3705 15.2342
2 24.8712 31.3835 15.2179
1 24.5099 33.4992 15.5247
1 25.1267 34.7578 15.475
2 24.518 35.6501 15.6615
1 23.0778 33.3613 15.9446
1 26.7163 39.2008 13.8196
1 25.7364 39.8806 12.9719
1 26.1856 4.48767 11.6503
2 27.1651 4.4007 11.2342
1 25.2323 5.14691 10.8199
2 25.531 5.26772 9.76717
1 23.9778 5.48433 11.3534
2 23.2282 6.08245 10.7592
1 23.6353 5.15773 12.657
1 24.5334 4.47948 13.471
2 24.1791 39.8756 14.3792
1 22.3014 5.50673 13.1887
1 23.818 36.2346 30.3397
1 23.6834 34.8305 29.9467
1 23.1366 33.9154 30.8341
2 22.7212 34.229 31.7862
1 23.3432 32.5675 30.5482
2 23.0836 31.7961 31.2733
1 23.8142 32.1738 29.2988
2 24.0421 31.1055 29.1058
1 24.1632 33.1033 28.2818
1 24.1134 34.4417 28.6451
2 24.4721 35.1896 27.9805
1 24.7073 32.7093 26.9591
1 25.4244 5.10865 32.0067
1 25.7151 6.52648 32.4542
1 25.8231 6.83934 33.8407
2 25.7546 6.06446 34.5834
1 25.9582 8.2073 34.2297
2 26.0252 8.50692 35.2472
1 25.7661 9.20376 33.2703
2 25.6295 10.2468 33.6126
1 25.5571 8.88032 31.9104
1 25.6383 7.51682 31.4818
2 25.4527 7.31007 30.4738
1 25.2084 9.9001 30.8975
1 22.8289 12.646 27.2732
1 22.005 13.4501 26.3983
1 21.1777 14.4602 26.9657
2 21.1898 14.6205 28.0258
1 20.2905 15.2263 26.173
2 19.5937 15.9479 26.6173
1 20.261 14.9869 24.7562
2 19.7026 15.6595 24.1039
1 21.047 13.9708 24.2087
1 21.9351 13.2458 25.0075
2 22.4653 12.3533 24.6352
1 20.962 13.7135 22.7348
3 29.6869 8.99858 20.9675
3 30.9459 10.742 21.3262
3 27.3366 9.24381 18.7332
3 29.1173 10.3956 18.2068
3 27.4025 12.0793 20.3549
3 29.026 13.5426 19.94
3 27.4837 11.1644 22.1156
3 29.6483 11.6933 21.9836
3 30.2617 36.8376 22.7077
3 32.0743 36.4842 23.9182
3 31.0443 38.1781 21.7243
3 33.1638 38.5155 22.2893
3 31.1265 4.69977 23.267
3 33.2092 39.9895 23.1107
3 29.8729 38.2901 25.5555
3 31.7179 39.3934 25.8201
3 26.4844 37.1897 15.4772
3 28.3918 36.2956 15.3423
3 26.3295 38.6709 14.9189
3 27.9813 39.3949 13.6648
3 27.7776 4.64657 16.6237
3 29.0013 40.1935 14.8236
3 29.711 38.1713 17.0362
3 31.1781 38.1716 15.3586
3 24.3986 37.0385 29.5584
3 23.6237 36.645 31.5414
3 26.1899 40.0335 29.4766
3 26.8328 38.2257 30.6111
3 25.0637 4.86768 30.8472
3 25.4526 39.9398 32.8423
3 22.7251 39.5536 30.5962
3 23.245 38.2573 32.2529
3 24.9976 9.56323 29.7239
3 24.9851 11.1266 31.2088
3 25.0567 11.2708 26.6423
3 26.2303 11.985 28.31
3 23.4264 11.6527 26.7837
3 22.9209 12.8729 28.5482
3 22.2659 10.0909 28.9943
3 22.6081 12.0039 30.089
3 23.1928 31.9766 24.0516
3 23.9126 30.5624 25.6594
3 24.1427 31.9258 22.6578
3 25.3426 30.0742 23.0555
3 26.9364 32.9138 23.3567
3 27.6651 31.4669 24.7879
3 24.8412 33.5872 26.0406
3 24.8973 31.4959 26.7084
3 26.3646 8.52013 19.9622
3 28.0455 39.3196 23.0961
3 26.6574 38.0757 18.5664
3 24.0025 39.7326 27.5665
3 24.2065 8.18142 27.0627
3 24.7583 35.0419 23.263
4 27.9715 10.0039 20.5226
4 30.068 11.6949 19.7354
4 29.9675 38.7268 23.5443
4 32.7141 38.3443 24.3668
4 27.5944 38.4844 16.671
4 29.3394 38.0635 14.3244
4 24.3703 39.1381 29.4854
4 25.3156 37.911 32.096
4 24.0302 10.057 27.9873
4 24.6688 12.4404 29.6342
4 25.015 33.2043 24.0991
4 25.9085 30.445 25.0662
1 15.4215 36.1587 22.6749
1 14.4009 36.8892 21.9296
1 13.3462 36.2476 21.181
2 13.3723 35.1944 21.1833
1 12.376 36.9838 20.5383
2 11.4222 36.5333 20.1502
1 12.4556 38.3851 20.5448
2 11.7563 38.9388 19.8957
1 13.5521 39.0359 21.2248
1 14.4681 38.2563 21.9649
2 15.2381 38.6931 22.5953
1 13.825 4.65032 21.1383
1 16.5565 35.353 26.7543
1 16.3108 35.9772 28.0864
1 16.1009 35.2517 29.2946
2 16.1635 34.1165 29.3561
1 15.9175 35.9277 30.4922
2 15.9129 35.3263 31.4091
1 15.8371 37.3231 30.491
2 15.6521 37.7525 31.4791
1 15.9832 38.0604 29.2847
1 16.1963 37.3824 28.1328
2 16.3032 37.969 27.2132
1 15.9809 39.5221 29.2711
1 18.1927 32.7414 25.0738
1 19.2007 31.746 25.4692
1 18.7893 30.5392 26.0347
2 17.7602 30.3135 26.1865
1 19.7503 29.5665 26.4458
2 19.3562 28.6314 26.7983
1 21.1305 29.7619 26.1422
2 21.8879 29.0677 26.4281
1 21.5163 30.9077 25.397
1 20.5527 31.9147 25.1044
2 20.8933 32.7346 24.4966
1 22.943 31.1353 25
1 16.2901 32.637 22.4715
1 16.6019 31.7851 21.2952
1 15.9893 30.5331 21.1314
2 15.1918 30.2119 21.8123
1 16.2266 29.7876 19.8977
2 15.7138 28.8305 19.7611
1 17.2086 30.2733 19.0335
2 17.3068 29.7447 18.132
1 17.9477 31.4666 19.3061
1 17.5653 32.2625 20.4015
2 18.1019 33.2326 20.5095
1 18.9792 31.9542 18.3218
1 14.4311 9.66121 20.8641
1 14.8508 11.0597 20.9696
1 14.0343 12.1235 21.4137
2 12.9689 11.9175 21.4219
1 14.5253 13.3986 21.6733
2 13.8777 14.2192 21.9912
1 15.8729 13.6264 21.555
2 16.1817 14.6143 21.9715
1 16.7461 12.6435 21.2116
1 16.221 11.3716 20.9153
2 16.9729 10.6637 20.7219
1 18.2086 12.959 20.9727
1 12.3477 7.08088 23.6503
1 12.0057 6.79163 25.0903
1 10.642 6.4959 25.4724
2 9.84571 6.51277 24.653
1 10.3637 6.40449 26.8449
2 9.34768 6.28683 27.0894
1 11.4448 6.35912 27.813
2 11.1948 6.23943 28.9145
1 12.7686 6.5314 27.3794