2256
 Atoms. Timestep: 0
1 43.9035 7.5274 3.62102
1 43.0808 8.21991 2.62142
1 42.9521 9.62291 2.69138
2 43.6785 10.2318 3.33171
1 42.0486 10.2661 1.92213
2 41.9489 11.2888 1.94117
1 41.2444 9.54547 1.0368
2 40.5537 9.98672 0.393108
1 41.3548 8.12232 0.939671
1 42.2538 7.4433 1.772
2 42.272 6.32426 1.79891
1 40.5549 7.353 -0.0399752
1 42.7667 6.05568 6.72302
1 41.3401 5.72066 6.97312
1 40.3174 6.68338 6.87867
2 40.5764 7.65492 6.62929
1 38.9792 6.33225 7.00111
2 38.2563 7.08842 6.93115
1 38.6181 4.98694 6.94445
2 37.5663 4.76285 6.87111
1 39.6467 4.03028 6.84574
1 40.9992 4.38831 6.96058
2 41.797 3.64606 6.76885
1 39.2771 2.58439 6.66204
1 1.03917 5.29605 6.61751
1 2.20014 4.70903 7.27111
1 2.55123 5.08079 8.59528
2 1.9908 5.92246 9.07621
1 3.56986 4.40424 9.28303
2 3.741 4.61081 10.3435
1 4.30471 3.4111 8.65546
2 5.11062 2.9623 9.22588
1 3.94801 2.91081 7.3959
1 2.92451 3.60047 6.66885
2 2.825 3.36905 5.62707
1 4.72951 1.80357 6.76002
1 0.927476 7.63819 4.33946
1 1.92907 8.35235 3.52603
1 2.17228 9.73718 3.69092
2 1.60589 10.3354 4.41471
1 3.18445 10.3314 2.96058
2 3.49154 11.3337 3.32692
1 3.88922 9.61565 1.98523
2 4.66193 10.1472 1.40231
1 3.55672 8.27786 1.72067
1 2.66343 7.61094 2.54984
2 2.47129 6.58215 2.39969
1 4.2897 7.51769 0.6452
1 37.6059 4.21129 43.2671
1 36.8376 3.40291 42.3252
1 35.4573 3.55578 42.2115
2 35.008 4.44555 42.6749
1 34.6977 2.66497 41.4158
2 33.658 2.70703 41.4304
1 35.3425 1.58723 40.7816
2 34.8113 0.809317 40.2992
1 36.7285 1.41623 40.8816
1 37.4705 2.27882 41.6756
2 38.5231 2.02528 41.8483
1 37.3474 0.306115 40.173
1 37.399 4.24973 0.184232
1 36.6194 3.42446 1.19922
1 35.2494 3.57209 1.32818
2 34.7525 4.24422 0.721513
1 34.5285 2.93676 2.32233
2 33.4748 3.20423 2.48893
1 35.2176 2.35358 3.36675
2 34.7134 1.98353 4.2459
1 36.6099 2.07335 3.22506
1 37.3144 2.7475 2.23425
2 38.3868 2.66265 2.20772
1 37.3697 1.35213 4.25506
1 39.29 6.53394 42.3779
1 39.7573 6.87451 41.0181
1 39.1086 7.88573 40.2506
2 38.1373 8.38001 40.5699
1 39.6008 8.28746 39.0195
2 39.0195 8.92893 38.3593
1 40.7608 7.66955 38.5257
2 41.0245 7.83929 37.5134
1 41.502 6.74817 39.3499
1 40.9892 6.37989 40.6112
2 41.4626 5.59239 41.1479
1 42.7924 6.16514 38.9389
1 37.513 43.9507 5.11249
1 36.9151 42.7031 4.57667
1 35.6223 42.3838 4.99962
2 35.0847 42.99 5.73621
1 34.9759 41.2633 4.47082
2 33.9364 41.0757 4.78764
1 35.6456 40.5221 3.46571
2 35.1337 39.6322 3.03104
1 36.9 40.8724 3.00913
1 37.5798 42.0125 3.58423
2 38.532 42.3084 3.2101
1 37.5846 40.1034 1.91781
1 40.1151 44.5834 7.36257
1 40.8943 43.6593 8.25836
1 40.9225 43.8164 9.66113
2 40.2339 44.5156 10.14
1 41.9253 43.1221 10.3227
2 42.063 43.3256 11.3597
1 42.7163 42.1832 9.64713
2 43.4011 41.5888 10.241
1 42.6082 41.9021 8.31159
1 41.6769 42.6201 7.58899
2 41.6652 42.5256 6.54352
1 43.6545 41.0536 7.64771
1 43.2187 3.6491 37.1203
1 42.1764 2.83371 36.5025
1 42.059 2.68538 35.0995
2 42.6551 3.26961 34.398
1 41.1548 1.79481 34.5556
2 40.988 1.78951 33.4894
1 40.461 0.916638 35.3812
2 39.8991 0.213194 34.8244
1 40.466 1.0918 36.8176
1 41.3561 2.06741 37.3184
2 41.4568 2.0682 38.3827
1 39.7345 0.181038 37.673
1 1.09524 6.44833 39.2509
1 2.30898 7.14981 39.709
1 3.07695 7.88208 38.805
2 2.72172 8.04737 37.8201
1 4.38274 8.26459 39.1477
2 5.04089 8.75126 38.4185
1 4.87385 8.0144 40.4006
2 5.882 8.22211 40.5296
1 4.09241 7.39715 41.3562
1 2.80515 6.94264 41.0075
2 2.08525 6.49525 41.7645
1 4.59211 7.06662 42.7255
1 6.70095 5.31754 0.851782
1 7.39863 4.75373 2.05969
1 8.5523 5.35687 2.5238
2 8.99262 6.20192 1.96347
1 9.2878 4.87659 3.5846
2 10.1221 5.34352 3.98586
1 8.70148 3.86533 4.38917
2 9.14432 3.62693 5.40895
1 7.49928 3.29055 3.92567
1 6.92044 3.69326 2.78245
2 5.95322 3.1866 2.44468
1 6.98523 2.09189 4.62988
3 44.482 6.43434 3.2599
3 43.9245 7.97707 4.8197
3 43.6182 5.09419 6.38658
3 43.0663 7.26615 6.54524
3 0.82218 5.11496 5.37899
3 0.155752 5.84526 7.3116
3 0.544019 6.44236 4.12148
3 0.27477 8.26016 5.19454
3 38.8804 4.10238 43.2873
3 37.0206 4.99951 44.0342
3 38.6264 4.06288 0.101343
3 36.8518 5.15451 -0.558308
3 41.0537 6.30336 -0.570606
3 39.3527 7.57061 -0.0823237
3 39.9006 5.55015 42.9656
3 38.4017 7.19401 42.9425
3 38.8038 44.0828 5.17893
3 36.7694 44.8638 5.6331
3 39.9122 44.3095 6.16395
3 39.4492 -0.471892 7.81477
3 40.19 1.75832 6.28034
3 38.0145 2.18475 6.71856
3 38.4252 0.764943 3.89431
3 37.002 1.35129 5.47927
3 43.3734 3.67246 38.4173
3 43.9672 4.30246 36.3241
3 43.1321 5.04842 39.4312
3 43.5272 6.72678 38.053
3 0.209045 6.00997 40.084
3 0.953278 6.26475 37.9574
3 0.350047 3.36357 38.1662
3 -0.391617 4.07065 36.1376
3 3.87048 6.54524 43.5986
3 5.81689 7.19866 42.9624
3 4.29067 6.22687 0.663648
3 4.99693 8.10653 -0.209871
3 5.47057 5.13344 0.696249
3 7.39531 5.91841 0.00340532
3 6.10151 4.22879 44.0707
3 6.98598 6.11031 43.3249
3 39.8219 43.0799 38.0987
3 37.85 42.2436 38.1267
3 38.5059 43.2648 41.0531
3 36.4971 43.7723 40.1383
3 38.6317 0.20489 40.0512
3 36.5824 -0.565866 39.6327
3 39.8493 0.16054 38.9484
3 38.8176 -0.51045 37.1612
3 44.68 3.23994 3.97487
3 41.5376 3.19519 45.4182
3 41.691 0.108711 4.36898
3 -0.683529 3.33633 41.3436
3 3.39229 3.55489 44.5551
3 41.4708 44.0171 40.8621
4 44.9555 5.1481 4.79469
4 45.0383 7.49834 6.60394
4 40.032 4.65207 45.0067
4 37.7841 6.79868 44.9304
4 39.792 0.0604106 5.18227
4 37.5958 0.185394 7.04503
4 45.0916 4.39203 39.5318
4 45.1634 5.94999 36.9755
4 4.56998 5.21803 45.0693
4 6.56503 7.38843 44.9766
4 39.6473 44.3124 39.7941
4 37.3252 44.2394 38.0841
1 0.922502 36.8273 40.5795
1 1.87352 36.1792 41.4871
1 1.93148 34.8092 41.5781
2 1.36301 34.1535 40.9256
1 2.83115 34.2306 42.5117
2 2.96185 33.1483 42.5694
1 3.73075 35.0134 43.2062
2 4.28315 34.5026 43.8862
1 3.65387 36.4167 43.1281
1 2.82486 36.9786 42.2058
2 2.77602 38.0318 42.0085
1 4.48873 37.2852 44.0558
1 0.892504 39.4898 38.2288
1 1.92182 40.1717 37.4442
1 1.96801 39.9563 36.0498
2 1.2743 39.2351 35.5462
1 2.85129 40.6306 35.3049
2 3.04893 40.3498 34.2013
1 3.70735 41.5649 35.9537
2 4.42403 42.1158 35.3629
1 3.65603 41.8366 37.3651
1 2.7997 41.0655 38.1084
2 2.74728 41.301 39.171
1 4.4553 42.9191 38.0107
1 42.7268 38.6333 38.2543
1 41.3296 39.037 37.8466
1 40.472 38.1216 37.2278
2 40.705 37.1691 36.9808
1 39.2409 38.5245 36.7608
2 38.4671 37.8116 36.4062
1 38.8556 39.9039 36.8383
2 37.8133 40.1256 36.5199
1 39.6324 40.7791 37.5215
1 40.9134 40.3668 37.8845
2 41.5981 41.1133 38.3895
1 39.0641 42.0645 37.9737
1 43.3905 36.9625 40.9449
1 42.4097 36.2076 41.7748
1 41.9817 34.9567 41.3529
2 42.4707 34.4601 40.5688
1 40.8868 34.3253 41.9812
2 40.5394 33.3516 41.6319
1 40.2917 34.967 43.1226
2 39.4717 34.4904 43.6628
1 40.7386 36.2217 43.5879
1 41.7952 36.8013 42.9153
2 42.1833 37.745 43.1945
1 40.0992 36.9605 44.6784
1 7.20471 39.8931 1.42925
1 7.88674 40.6428 2.47343
1 9.05064 40.1543 3.11359
2 9.53766 39.227 2.6812
1 9.61902 40.8355 4.18562
2 10.4187 40.1876 4.67384
1 9.02385 42.0517 4.65576
2 9.46663 42.4789 5.55126
1 7.94554 42.6554 3.9428
1 7.37994 41.9292 2.87984
2 6.51058 42.3439 2.45015
1 7.29497 43.9408 4.45095
1 6.99061 39.5115 43.7918
1 7.65992 40.1852 42.5758
1 9.02712 40.1594 42.4401
2 9.68936 39.6491 43.1452
1 9.66034 40.7661 41.3425
2 10.6915 40.6985 41.119
1 8.92958 41.6825 40.5014
2 9.45862 42.215 39.7494
1 7.56366 41.8604 40.7734
1 6.90878 41.124 41.7754
2 5.86845 41.2404 41.9336
1 6.83516 42.9946 40.0843
1 4.76594 37.9277 1.98207
1 4.30689 37.4662 3.3053
1 5.04251 36.6159 4.04944
2 5.96107 36.1955 3.67351
1 4.50856 36.1582 5.33406
2 5.12257 35.4782 5.8815
1 3.26366 36.666 5.88336
2 2.87994 36.2861 6.80739
1 2.58085 37.608 5.13871
1 3.04861 37.945 3.84486
2 2.4974 38.6699 3.2049
1 1.41823 38.2868 5.69088
1 6.94235 1.10452 39.9228
1 7.53667 2.32365 40.4726
1 8.61406 2.96197 39.7477
2 9.11009 2.57198 38.8839
1 9.06277 4.18984 40.2278
2 9.81741 4.81793 39.8013
1 8.51673 4.76043 41.3812
2 8.99025 5.71669 41.7465
1 7.51825 4.13139 42.0976
1 7.07475 2.87084 41.6792
2 6.2845 2.43996 42.2623
1 6.91942 4.85165 43.2523
1 3.97024 0.0129375 37.184
1 2.88662 0.503971 36.3071
1 2.67093 0.109389 34.9853
2 3.17961 45.2435 34.5391
1 1.67593 0.749974 34.3002
2 1.48764 0.437744 33.2941
1 0.937403 1.84176 34.8415
2 0.199264 2.3899 34.2255
1 1.14196 2.21587 36.1985
1 2.15517 1.55219 36.8812
2 2.41583 1.82719 37.9761
1 0.315588 3.26103 36.8474
1 0.781951 41.51 8.00291
1 1.78368 42.4666 8.59693
1 2.03111 42.4656 9.90885
2 1.56823 41.7372 10.5467
1 3.08631 43.1792 10.4717
2 3.27406 43.0273 11.5652
1 3.9186 43.9709 9.672
2 4.73419 44.5976 10.1033
1 3.5878 44.1063 8.325
1 2.48966 43.3437 7.78601
2 2.32381 43.3459 6.75065
1 4.52162 44.7074 7.40887
1 43.2458 38.3171 6.09033
1 42.0865 37.618 5.5694
1 41.7661 36.3847 6.14555
2 42.2009 36.0171 7.05719
1 40.7622 35.6033 5.57634
2 40.6446 34.6113 5.95597
1 40.1733 35.9855 4.30957
2 39.5982 35.3392 3.62886
1 40.4319 37.2931 3.88166
1 41.4148 38.0901 4.46902
2 41.7019 39.0206 3.99161
1 39.7785 37.8656 2.65457
1 37.4933 40.3425 45.0456
1 36.6974 41.1886 44.1947
1 35.2595 41.2247 44.2787
2 34.7369 40.777 45.128
1 34.4557 42.0802 43.5194
2 33.4123 42.226 43.6918
1 35.135 42.7569 42.4197
2 34.4611 43.2787 41.7848
1 36.495 42.5519 42.1773
1 37.2866 41.8149 43.1005
2 38.281 41.4125 42.8935
1 37.2438 43.2509 41.0653
3 0.761841 38.0736 40.5753
3 0.183356 36.0901 39.8257
3 0.861893 39.5242 39.5145
3 0.0282033 38.794 37.5887
3 43.6231 39.4898 38.5875
3 42.9767 37.3641 38.42
3 44.0378 37.9649 41.4035
3 43.5305 36.6272 39.7182
3 6.41105 40.5052 0.6287
3 7.2855 38.5946 1.44974
3 5.75246 39.6762 43.9629
3 7.69504 38.8926 44.6722
3 4.45043 38.5574 43.9768
3 5.05196 36.7561 45.0456
3 3.9665 38.432 1.1367
3 5.98912 37.7544 1.64827
3 6.13669 0.409583 40.588
3 7.1662 0.822116 38.6679
3 3.83337 0.200748 38.4435
3 4.93805 -0.716265 36.7803
3 4.3427 43.169 39.2852
3 5.15579 43.7223 37.2552
3 5.60037 43.2023 40.3539
3 7.48424 43.6728 39.1714
3 0.58167 41.4672 6.76077
3 0.13321 40.6649 8.75197
3 0.513827 38.8316 4.95089
3 1.32625 38.4139 6.95444
3 43.5721 39.4487 5.57988
3 43.9781 37.8523 6.99641
3 43.5982 40.8604 6.35605
3 44.5031 40.4816 8.38169
3 40.1383 38.9993 2.16677
3 39.0432 37.1229 1.92063
3 40.8075 37.6736 45.4489
3 38.8082 37.0457 44.8229
3 38.7211 40.4168 45.2047
3 36.9016 39.5157 -0.519782
3 38.8634 40.0617 1.87191
3 36.8708 39.3599 1.12874
3 4.60518 1.48558 5.50238
3 5.47125 1.08785 7.48752
3 5.92736 1.54143 4.28793
3 7.67283 1.62453 5.57071
3 6.55127 44.6306 3.70143
3 7.51463 44.2393 5.69131
3 4.42003 44.4488 6.17472
3 5.46058 -0.507047 7.81253
3 44.6336 41.1299 40.9547
3 3.41308 41.1492 -0.220995
3 3.73248 -0.548417 41.7769
3 -0.328172 41.3172 3.70508
3 41.8688 40.7031 0.0381708
3 3.3966 45.156 3.33946
4 45.004 39.2508 40.1769
4 45.0156 37.0006 38.3281
4 4.74362 39.6426 -0.465858
4 6.71018 37.5482 -0.304721
4 4.66304 45.1437 39.958
4 6.78567 45.0136 37.8142
4 -0.59562 40.4425 5.5079
4 -0.391414 38.7076 7.92051
4 40.0956 39.4586 0.179551
4 37.7735 37.6255 0.261043
4 5.06374 -0.353233 4.58973
4 7.21921 -0.014062 6.75061
2 3.12381 41.3807 45.1993
2 2.92756 41.2054 0.626221
2 42.3156 3.52116 -0.283252
2 41.5229 2.28533 45.0137
2 41.7715 44.7922 41.3402
2 41.8407 43.1033 40.8269
2 44.9413 3.62744 42.1801
2 -0.249106 2.50671 41.1721
2 3.40964 -0.685179 2.38866
2 2.62064 45.1434 3.8818
2 44.6189 2.49937 4.55971
2 45.014 3.04753 3.09935
2 3.71585 2.63862 44.7125
2 2.46968 3.73993 44.3768
2 0.0573642 40.8669 2.92353
2 -0.535475 42.2721 3.64317
2 42.3204 0.526055 4.97223
2 41.9118 45.2503 4.08673
2 42.3237 40.8561 0.848625
2 42.0749 41.1418 45.4705
2 3.45819 44.7335 42.4176
2 3.61324 0.365968 42.0318
2 45.0092 41.5451 41.7141
2 43.8555 41.6191 40.5923
1 42.9481 14.7758 17.4452
1 41.9675 14.141 18.3969
1 41.721 12.7483 18.3099
2 42.2744 12.0804 17.6501
1 40.7475 12.1325 19.0367
2 40.6589 11.077 18.7956
1 39.9007 12.8828 19.8698
2 39.008 12.4348 20.3211
1 40.1356 14.273 20.0023
1 41.1131 14.9075 19.2002
2 41.3297 15.9796 19.348
1 39.2477 15.1391 20.8918
1 42.3349 17.2763 14.1785
1 41.3647 18.081 13.4277
1 40.7209 17.6636 12.2486
2 40.9707 16.707 11.8083
1 39.8105 18.5822 11.5985
2 39.3822 18.2626 10.6602
1 39.3532 19.6888 12.2447
2 38.548 20.2246 11.7696
1 39.8085 20.0368 13.4838
1 40.9217 19.2545 14.0436
2 41.3369 19.588 14.9881
1 39.2946 21.1977 14.2435
1 0.529125 16.8937 14.4578
1 1.72895 17.2525 13.7524
1 2.34822 16.4418 12.7474
2 1.84046 15.5253 12.4325
1 3.48872 16.9332 12.0776
2 3.89176 16.2982 11.2514
1 4.10167 18.1429 12.49
2 4.99883 18.4326 11.9062
1 3.49774 18.9572 13.4107
1 2.3254 18.5278 14.0104
2 1.80559 19.1523 14.7838
1 4.22473 20.0612 13.9775
1 0.0602374 14.578 16.6969
1 1.02388 13.7105 17.443
1 0.859597 12.2983 17.3634
2 0.209416 11.8023 16.6334
1 1.65479 11.4538 18.1483
2 1.57414 10.3556 17.9755
1 2.62074 11.9214 19.0066
2 3.22269 11.1429 19.4273
1 2.75566 13.3042 19.1388
1 1.93465 14.2015 18.357
2 2.01135 15.2564 18.5823
1 3.76393 13.8696 20.1028
1 36.5936 17.9339 24.4736
1 35.9261 18.7519 25.5161
1 34.5789 18.5486 25.9076
2 33.883 17.8399 25.4896
1 34.0565 19.3484 26.8727
2 33.0204 19.2564 27.0573
1 34.8027 20.2451 27.608
2 34.3161 20.7161 28.4362
1 36.1639 20.3717 27.3251
1 36.7252 19.6442 26.2321
2 37.7837 19.829 25.9933
1 37.0321 21.2146 28.1689
1 37.0756 17.3368 20.368
1 36.5838 17.9688 19.1137
1 35.5101 17.4062 18.3518
2 34.9867 16.4778 18.6466
1 35.1603 17.9788 17.0734
2 34.4881 17.4431 16.379
1 35.7537 19.1223 16.6797
2 35.5727 19.5874 15.7263
1 36.6952 19.7378 17.497
1 37.1454 19.1561 18.694
2 37.8605 19.7614 19.3413
1 37.3186 21.0298 16.9793
1 39.3987 14.8347 23.996
1 40.3144 13.835 24.6534
1 40.0705 12.4694 24.5363
2 39.3025 12.2043 23.9047
1 40.8255 11.5355 25.2823
2 40.5099 10.4609 25.3317
1 41.9521 11.9982 25.9736
2 42.5419 11.2753 26.5438
1 42.1741 13.3928 26.114
1 41.2999 14.2869 25.5007
2 41.4497 15.3571 25.6581
1 43.1469 13.9027 27.0541
1 37.3423 24.9168 17.4068
1 36.7293 25.9238 18.2819
1 35.3642 26.178 18.3052
2 34.6425 25.6045 17.7638
1 34.8489 27.0832 19.1985
2 33.7572 27.1522 19.1513
1 35.6112 27.7937 20.1436
2 35.1783 28.5262 20.7558
1 37.0339 27.5625 20.1863
1 37.5753 26.6424 19.2158
2 38.6139 26.3944 19.3426
1 37.8036 28.1918 21.2497
1 39.6827 25.2736 15.007
1 40.2428 26.5375 14.5196
1 39.6084 27.3597 13.5998
2 38.616 27.1033 13.287
1 40.2242 28.5765 13.145
2 39.6362 29.2887 12.5771
1 41.5214 28.9361 13.5839
2 42.0228 29.83 13.1611
1 42.1076 28.176 14.5977
1 41.4899 27.0075 15.0728
2 41.9995 26.4446 15.813
1 43.3791 28.63 15.1508
1 43.1029 16.4308 30.2678
1 42.1426 17.2053 31.081
1 41.6979 16.7947 32.3256
2 41.9945 15.8492 32.6857
1 40.87 17.6184 33.161
2 40.5228 17.2524 34.1371
1 40.4062 18.8008 32.657
2 39.7732 19.3733 33.3034
1 40.8126 19.2357 31.3447
1 41.7119 18.4591 30.6042
2 42.1705 18.8914 29.7406
1 40.2611 20.4338 30.7373
1 0.237386 13.9047 26.9941
1 1.00144 13.07 26.1217
1 0.903536 11.6825 26.072
2 0.246694 11.067 26.7692
1 1.6767 10.9611 25.1848
2 1.62551 9.85841 25.2281
1 2.59599 11.565 24.2942
2 3.22328 10.9354 23.6664
1 2.73548 12.9257 24.3447
1 1.96635 13.655 25.2762
2 2.0712 14.7213 25.266
1 3.60062 13.5844 23.3452
1 6.27154 16.0681 19.7234
1 6.90607 16.8103 18.6703
1 8.17126 16.3772 18.2057
2 8.70562 15.5286 18.7117
1 8.84003 17.1748 17.2179
2 9.877 17.0411 16.8697
1 8.15573 18.1843 16.5151
2 8.68121 18.6788 15.7194
1 6.95286 18.6075 16.9769
1 6.29435 17.8912 18.0097
2 5.42307 18.3756 18.4853
1 6.29563 19.8099 16.4166
3 43.1841 16.0067 17.5039
3 43.3501 14.1286 16.4422
3 43.2302 17.9085 14.8754
3 42.2974 16.0064 14.2097
3 0.484424 17.0714 15.7
3 -0.513551 16.4474 13.8418
3 0.0968715 15.8419 16.8457
3 45.2034 14.0451 16.0316
3 37.4176 18.4988 23.675
3 36.3789 16.6979 24.3398
3 38.1849 17.6566 20.8568
3 36.3632 16.5026 20.9983
3 39.3663 16.4266 20.9155
3 38.4464 14.5935 21.6706
3 39.6031 16.0874 24.0588
3 38.4704 14.432 23.2312
3 38.6142 24.6382 17.4604
3 36.6643 24.4219 16.4729
3 39.8754 24.9161 16.2605
3 38.9796 24.5633 14.2418
3 40.0758 21.7306 15.0671
3 38.0236 21.4341 14.2215
3 38.1682 21.6632 17.6848
3 37.0604 21.4492 15.7565
3 43.9412 17.0669 29.508
3 42.9588 15.1759 30.175
3 43.554 15.1009 26.9222
3 43.7404 13.1842 27.9528
3 0.421715 15.1788 27.0143
3 -0.537596 13.3306 27.811
3 0.871228 16.1753 28.368
3 0.238722 15.2953 30.294
3 3.42114 14.8369 23.067
3 4.52339 12.9418 22.7273
3 3.85822 15.1091 20.2361
3 4.4652 13.0684 20.7939
3 5.08485 16.2927 20.0579
3 6.89051 15.1947 20.3603
3 6.31408 16.4012 23.2753
3 6.49393 14.2543 23.7108
3 40.9678 23.6278 29.264
3 40.159 22.9552 31.1857
3 39.6472 24.2327 28.2659
3 37.9911 24.3083 29.7348
3 37.9368 21.7887 27.5765
3 37.1232 21.066 29.4189
3 40.3543 20.5784 29.4891
3 39.6511 21.364 31.4535
3 44.4521 19.1565 17.1465
3 40.6086 18.8458 22.8245
3 41.1387 22.321 17.8191
3 44.8001 18.0682 26.6536
3 3.41642 17.8753 22.3532
3 40.8259 21.6601 26.352
4 44.4798 17.1466 16.3817
4 44.0799 15.0099 14.5078
4 38.9935 17.4405 22.7495
4 36.748 15.4828 22.7411
4 39.5573 22.7962 16.8021
4 37.3354 23.325 14.8472
4 44.9132 16.4135 27.8108
4 44.6413 14.0417 29.6988
4 4.53667 16.1521 22.0554
4 6.22667 13.6168 21.7163
4 39.8685 22.1185 28.1219
4 38.091 22.4326 30.6098
1 2.61054 29.3422 28.0703
1 3.95449 29.7562 27.6328
1 4.85903 30.3868 28.5187
2 4.47543 30.5597 29.5196
1 6.15098 30.7803 28.0737
2 6.86878 31.1659 28.7414
1 6.48676 30.5153 26.7538
2 7.4698 30.842 26.3971
1 5.66254 29.733 25.9514
1 4.38694 29.343 26.3599
2 3.68379 28.7947 25.6976
1 6.08937 29.3319 24.6067
1 1.71505 26.8538 29.822
1 2.75994 25.9463 30.435
1 2.89852 25.9375 31.8686
2 2.3827 26.6895 32.3832
1 3.50739 24.8474 32.5285
2 3.37874 24.742 33.5783
1 4.11657 23.8548 31.8024
2 4.39126 22.9376 32.2601
1 4.05728 23.8387 30.3575
1 3.37496 24.8853 29.7366
2 3.29872 24.8829 28.7103
1 4.82273 22.7951 29.653
1 44.7255 26.8943 30.3817
1 43.8836 25.9911 31.2201
1 44.057 25.869 32.5873
2 44.8597 26.3793 33.0009
1 43.2301 24.9755 33.3075
2 43.298 24.9335 34.4383
1 42.2808 24.2405 32.6848
2 41.7351 23.5501 33.2966
1 42.1142 24.3532 31.2785
1 42.8995 25.2288 30.5682
2 42.7796 25.2432 29.5417
1 41.0267 23.6034 30.5222
1 44.5325 30.1863 27.7878
1 43.534 31.1384 27.2218
1 43.0026 32.1673 28.0341
2 43.4986 32.486 29.0045
1 41.8553 32.8815 27.6413
2 41.5183 33.7488 28.2389
1 41.265 32.5319 26.4318
2 40.4011 32.9833 26.2241
1 41.6948 31.4061 25.6729
1 42.8611 30.7646 26.031
2 43.1658 29.8668 25.5459
1 40.7884 30.7331 24.6801
1 7.64392 26.8252 20.4676
1 8.19024 26.0828 19.2717
1 9.54674 26.0577 18.9655
2 10.1792 26.7009 19.5596
1 9.99124 25.3821 17.8663
2 11.0588 25.2922 17.682
1 9.06998 24.7356 16.9978
2 9.50545 24.1593 16.2194
1 7.64695 24.6532 17.3642
1 7.27383 25.2969 18.5638
2 6.22323 25.2184 18.7826
1 6.75747 23.6986 16.6275
1 7.8471 26.6251 24.0939
1 8.43943 25.8255 25.1856
1 9.71396 26.1321 25.6999
2 10.3773 26.8852 25.266
1 10.2605 25.33 26.7197
2 11.211 25.6122 27.1278
1 9.54838 24.3042 27.3095
2 9.91758 23.7825 28.1791
1 8.21648 24.0748 26.8804
1 7.69667 24.8085 25.8234
2 6.75389 24.517 25.3878
1 7.50284 22.9239 27.4279
1 5.58801 29.6055 20.3889
1 4.94759 30.3628 19.3481
1 5.23906 31.7501 19.2596
2 6.17224 32.1315 19.6753
1 4.37391 32.5986 18.558
2 4.7173 33.6511 18.3811
1 3.19423 32.0916 17.9263
2 2.64472 32.8091 17.2821
1 2.96964 30.716 17.9511
1 3.80786 29.8364 18.6666
2 3.51464 28.8556 18.6658
1 1.77269 30.1848 17.2347
1 7.49663 18.9386 27.5351
1 7.72193 17.5644 27.023
1 8.5074 16.6214 27.7052
2 8.85115 16.8629 28.6716
1 8.61637 15.3064 27.2264
2 9.20843 14.5736 27.755
1 7.94208 14.9405 26.1051
2 7.90534 13.8665 25.8048
1 7.29152 15.8941 25.3523
1 7.09896 17.1845 25.8449
2 6.41369 17.8416 25.3046
1 6.66847 15.4606 24.0834
1 5.09376 19.0191 29.7934
1 4.4114 17.8261 30.327
1 4.86212 17.21 31.4926
2 5.77028 17.5668 32.0289
1 4.03771 16.3257 32.146
2 4.2522 16.0301 33.1311
1 2.82549 15.9037 31.5606
2 2.27834 15.1331 32.1108
1 2.43012 16.3362 30.2564
1 3.22757 17.3532 29.6832
2 2.86157 17.8087 28.7221
1 1.13807 15.8728 29.6031
1 1.13155 27.9047 14.7391
1 1.95703 27.0441 13.8467
1 1.99533 27.2376 12.4759
2 1.39308 28.0041 11.9946
1 2.89299 26.4782 11.7157
2 3.09051 26.6904 10.6829
1 3.5643 25.4054 12.2506
2 4.36786 24.8844 11.6928
1 3.54908 25.1497 13.6765
1 2.69998 26.004 14.4268
2 2.57475 25.8342 15.4953
1 4.32895 24.0429 14.297
1 43.9412 30.893 17.5456
1 43.0127 31.6275 18.3601
1 42.5382 32.9157 17.9803
2 42.8827 33.4223 17.0544
1 41.6141 33.6201 18.8563
2 41.104 34.4365 18.4053
1 41.0911 32.9831 20.0116
2 40.2564 33.4336 20.44
1 41.5693 31.6906 20.3606
1 42.5436 31.0707 19.5837
2 42.8168 30.0088 19.7915
1 40.8058 30.8782 21.3926
1 38.8138 28.4884 25.476
1 38.5177 28.0661 26.8455
1 38.0347 28.9614 27.8188
2 37.803 29.9869 27.5263
1 37.8711 28.5738 29.1593
2 37.5555 29.2983 29.9234
1 38.0858 27.2502 29.512
2 37.7644 26.9139 30.468
1 38.4517 26.3013 28.5426
1 38.7927 26.7624 27.286
2 39.1843 26.0785 26.5956
1 38.6986 24.8866 28.8581
3 2.00669 28.3191 27.5334
3 2.07335 30.0314 29.0223
3 1.68264 26.9743 28.5613
3 1.06256 27.6738 30.5923
3 44.7105 26.8004 29.1154
3 -0.539088 27.7815 30.9417
3 45.0111 29.3274 27.0328
3 44.8943 30.3169 28.9875
3 6.44752 27.0293 20.6215
3 8.50598 27.4558 21.2261
3 6.80724 26.2098 23.4782
3 8.22964 27.8357 23.9982
3 5.22477 28.9946 23.7341
3 7.25922 29.1862 24.3464
3 5.35287 28.3497 20.553
3 6.37825 30.1589 21.235
3 7.00991 19.8192 26.7914
3 7.51827 19.0933 28.8108
3 4.45667 19.7943 28.9733
3 6.38494 19.1368 29.9304
3 4.97566 22.7612 28.3673
3 5.59118 22.0341 30.3382
3 6.20325 22.8545 27.3613
3 8.12123 22.0291 28.1543
3 1.20043 27.7744 16.0213
3 0.397843 28.8113 14.2188
3 1.5348 28.9402 17.13
3 0.893508 31.0206 16.8136
3 44.7266 30.0466 18.0867
3 43.9154 31.0025 16.2228
3 44.1964 27.7935 15.6228
3 43.6627 29.8692 15.0675
3 41.4298 29.9899 22.122
3 39.5876 31.175 21.6014
3 41.279 29.8754 23.8748
3 39.5013 30.8604 24.7252
3 39.5599 27.7285 24.7136
3 38.4138 29.6031 25.0296
3 39.0665 28.0618 21.2493
3 37.2493 28.9084 22.1302
3 3.5861 20.9115 14.6878
3 5.50226 20.0686 13.9249
3 5.55612 20.6094 17.1261
3 6.54211 20.0603 15.201
3 5.4757 23.7474 16.7605
3 7.27267 22.8842 15.8301
3 4.286 23.9281 15.561
3 4.87313 23.1475 13.596
3 -0.678782 26.7117 25.8643
3 3.65325 26.3454 22.7567
3 4.23015 20.7132 25.8487
3 44.7613 27.041 18.3954
3 41.4489 26.5802 22.4803
3 2.45842 21.7933 17.4631
4 -0.125181 27.7248 27.6638
4 0.214118 29.6015 30.0986
4 5.44121 27.383 22.4667
4 7.89658 29.1284 22.3144
4 5.34365 20.9389 27.5216
4 7.33155 20.9929 29.7531
4 -0.510899 28.3619 17.0639
4 -0.36678 30.5565 15.1716
4 40.3666 28.3189 22.8171
4 38.2117 30.388 23.0802
4 4.21552 22.0107 16.383
4 6.46153 21.9046 14.1675
2 3.54057 25.352 22.8289
2 2.86611 26.9338 22.7796
2 41.5588 18.6455 22.9201
2 40.3283 19.7305 22.9939
2 41.3995 20.9003 26.1681
2 40.8324 22.3424 25.6802
2 -0.351392 18.5216 26.639
2 44.1215 18.3587 26.0177
2 2.33047 21.9082 18.4301
2 1.69098 21.6101 16.8697
2 43.9968 19.7971 16.6389
2 44.7297 19.3363 18.0713
2 2.91903 17.9671 23.1257
2 3.38646 18.6195 21.713
2 44.5948 26.1753 18.0574
2 44.9462 26.9817 19.3498
2 41.1872 21.7712 18.622
2 41.999 22.5651 17.4645
2 42.3772 26.6305 22.763
2 41.1239 25.8849 21.8844
2 4.37954 19.9349 25.2482
2 3.75812 21.4386 25.4663
2 -0.257428 25.9082 25.5466
2 44.6094 27.0481 25.3671
1 30.7306 44.9124 17.9244
1 31.4233 43.9781 18.8547
1 32.801 43.8683 18.8297
2 33.4011 44.4213 18.0975
1 33.3897 42.9386 19.686
2 34.4381 42.8883 19.6962
1 32.6326 42.0097 20.4438
2 33.21 41.2257 21.0323
1 31.2743 42.1391 20.4804
1 30.6686 43.1435 19.6948
2 29.6083 43.2384 19.7651
1 30.3559 41.0938 21.1745
1 28.3116 44.1338 14.7063
1 27.547 43.1518 13.8517
1 27.5774 43.2794 12.4642
2 28.1719 43.9989 11.9014
1 26.744 42.3778 11.7303
2 26.6591 42.5853 10.6698
1 25.8789 41.4814 12.3059
2 25.3288 40.8782 11.6472
1 25.8916 41.3899 13.7198
1 26.7393 42.1688 14.5097
2 26.6483 42.1809 15.5526
1 24.8751 40.5093 14.3513
1 28.4037 2.40681 15.1569
1 27.9065 3.75856 14.8052
1 28.7819 4.76091 14.2662
2 29.7914 4.52556 13.9451
1 28.3862 6.14619 14.1704
2 29.0991 6.9102 13.8091
1 27.0588 6.50568 14.5153
2 26.7429 7.54081 14.2884
1 26.1707 5.50859 14.9886
1 26.592 4.16982 15.2051
2 25.9898 3.39456 15.683
1 24.7684 5.85708 15.3005
1 30.1941 2.04391 17.6988
1 30.7484 3.18285 18.427
1 31.8473 3.88941 17.9748
2 32.2187 3.61751 16.9493
1 32.2761 5.01528 18.63
2 32.9255 5.72093 18.075
1 31.6423 5.4146 19.7817
2 32.0371 6.3215 20.2609
1 30.6196 4.64534 20.3828
1 30.2142 3.48793 19.695
2 29.3813 2.8708 19.9607
1 29.8076 5.25026 21.4934
1 28.138 37.6912 23.928
1 27.2993 36.8977 24.8734
1 27.5295 35.4907 25.0685
2 28.3685 35.0273 24.5324
1 26.8918 34.7796 26.0714
2 27.2003 33.7719 26.2583
1 25.817 35.4065 26.8038
2 25.2554 34.8361 27.5425
1 25.4613 36.7588 26.5294
1 26.304 37.501 25.6489
2 26.2491 38.5751 25.6182
1 24.3407 37.4771 27.3056
1 29.0134 38.0225 19.6956
1 28.6846 37.5961 18.2748
1 29.5138 36.8778 17.4069
2 30.5192 36.6402 17.7227
1 29.1017 36.452 16.1397
2 29.721 35.8897 15.507
1 27.8046 36.7551 15.6846
2 27.5328 36.37 14.6893
1 26.9409 37.5376 16.5184
1 27.4405 38.0175 17.7643
2 26.7785 38.5952 18.4323
1 25.5788 37.9049 16.1646
1 30.6166 40.0636 24.0222
1 31.2624 40.9632 25.0431
1 32.6268 41.0113 25.2109
2 33.2482 40.3133 24.6788
1 33.207 41.8549 26.2301
2 34.3011 41.909 26.2993
1 32.3618 42.6612 27.0505
2 32.7988 43.3268 27.7828
1 30.9652 42.6116 26.8419
1 30.4309 41.7838 25.8399
2 29.3442 41.8162 25.6012
1 30.1182 43.5067 27.6193
1 21.7322 37.2506 16.9051
1 20.6729 36.5215 17.631
1 20.5929 35.0907 17.5178
2 21.0596 34.4769 16.7148
1 19.783 34.353 18.4125
2 19.7558 33.2726 18.4225
1 18.993 35.0183 19.3152
2 18.3547 34.4708 20.0407
1 18.9937 36.3965 19.3707
1 19.8188 37.143 18.5142
2 19.7271 38.1754 18.5224
1 18.0684 37.1207 20.2298
1 21.6186 40.2484 14.026
1 20.7338 41.2016 13.2727
1 20.8393 41.3975 11.8412
2 21.5512 40.834 11.2809
1 19.8994 42.1396 11.1332
2 19.8622 42.2891 10.0431
1 18.8937 42.8114 11.8728
2 18.1053 43.3177 11.3505
1 18.918 42.872 13.2382
1 19.8385 42.0395 13.9558
2 19.809 42.1418 15.0332
1 18.0686 43.8471 13.9496
1 27.4196 43.7036 30.6686
1 26.6009 42.6498 31.2959
1 26.7281 42.3543 32.6908
2 27.3157 42.969 33.3988
1 25.9211 41.4473 33.305
2 25.9026 41.4257 34.4251
1 25.0765 40.6823 32.5436
2 24.496 39.873 33.0063
1 24.8775 40.9269 31.1652
1 25.6446 41.9168 30.5588
2 25.6017 41.8523 29.4549
1 23.9672 40.1438 30.4197
1 29.754 1.67005 28.668
1 30.0293 3.10083 28.3533
1 30.7206 3.92337 29.2102
2 31.1352 3.45499 30.1467
1 30.7931 5.28731 28.9917
2 31.2728 5.96752 29.6226
1 30.3057 5.8052 27.7972
2 30.3205 6.85787 27.7052
1 29.7498 4.97744 26.8247
1 29.5015 3.65914 27.159
2 29.0459 2.97587 26.4659
1 29.2584 5.51439 25.5322
1 26.6898 7.90638 21.9307
1 25.7584 8.69585 21.0716
1 25.7439 10.1026 21.1003
2 26.4366 10.6642 21.7493
1 24.9863 10.8408 20.1603
2 24.993 11.8724 20.2225
1 24.1687 10.1606 19.2554
2 23.4787 10.7247 18.7292
1 24.1584 8.77664 19.1944
1 25.0202 8.06323 20.0728
2 25.2006 6.97196 19.9964
1 23.4612 7.94123 18.0863
3 29.6906 -0.565272 18.256
3 31.1435 44.9348 16.7147
3 28.1569 44.1238 15.956
3 28.8692 45.1295 14.2078
3 27.5951 1.61003 15.6911
3 29.6595 2.186 15.142
3 29.491 1.12763 18.2138
3 30.5694 1.89197 16.4732
3 28.1029 38.9612 24.0179
3 28.9585 37.1375 23.1601
3 28.1784 38.5848 20.429
3 30.1637 37.7469 20.1122
3 29.1529 41.3353 21.3714
3 30.9016 39.9874 21.5103
3 29.3422 39.9402 24.0043
3 31.3043 39.4863 23.1741
3 22.4997 37.964 17.6109
3 21.7211 37.3787 15.6355
3 21.5134 40.1758 15.3187
3 22.5597 39.6167 13.43
3 24.8024 40.431 15.6103
3 24.1955 39.6938 13.6758
3 25.1094 39.0094 16.5276
3 24.9695 37.1979 15.2815
3 26.9371 44.3525 29.6894
3 28.6366 43.8302 31.0483
3 28.8697 43.4558 27.5166
3 30.626 44.3591 28.4432
3 29.2167 0.877943 27.7763
3 29.8901 1.20529 29.8702
3 26.8076 0.0429567 29.7169
3 28.5792 0.782557 30.8108
3 28.2876 4.93807 24.9734
3 29.8678 6.50368 25.0165
3 29.1402 4.46722 22.2597
3 29.8296 6.49223 21.6849
3 26.7043 6.62971 21.8787
3 27.4751 8.52871 22.7376
3 26.8742 6.02842 24.8402
3 27.4885 8.10197 24.359
3 20.5685 39.6547 28.5336
3 20.812 38.3645 30.3044
3 21.0586 38.614 27.0338
3 21.9939 36.7854 27.9733
3 24.1069 38.7228 27.1379
3 23.5833 36.8372 28.0806
3 23.0961 40.7429 29.7288
3 24.1362 38.9026 30.3625
3 26.2415 -0.220084 17.5397
3 26.155 40.6152 22.0293
3 22.7746 41.1584 18.1652
3 26.8223 45.1729 26.3958
3 26.2645 3.56856 22.4668
3 22.7719 41.5676 26.6752
4 28.1279 -0.026418 16.8586
4 30.4174 0.18052 15.1531
4 28.1254 39.7973 22.09
4 30.4621 37.9479 22.0443
4 23.0869 39.6913 16.6827
4 23.3448 37.8505 14.2812
4 27.9017 45.2565 28.0997
4 29.8943 45.2211 30.2396
4 27.4581 5.14194 23.03
4 29.2619 7.53134 23.3161
4 22.5631 39.913 27.8191
4 22.7127 37.5813 29.8218
1 14.1712 -0.0594684 27.0523
1 13.4323 0.666096 26.0279
1 12.0971 0.286747 25.6343
2 11.5501 -0.408773 26.2261
1 11.429 1.01986 24.6307
2 10.3675 0.915696 24.3435
1 12.1506 1.93901 23.8675
2 11.6914 2.39397 23.0106
1 13.4781 2.3172 24.2549
1 14.0881 1.76741 25.3517
2 15.0446 2.11575 25.7278
1 14.178 3.38336 23.5485
1 16.3204 0.303144 30.6733
1 16.8452 1.41145 31.5375
1 16.2 1.90761 32.6418
2 15.2419 1.42632 32.8432
1 16.7392 2.91502 33.3716
2 16.2244 3.18208 34.2596
1 17.9083 3.55739 32.9565
2 18.3064 4.44951 33.5001
1 18.5804 3.1029 31.8512
1 18.0355 2.04582 31.1316
2 18.4653 1.81971 30.1542
1 19.719 3.85102 31.313
1 16.106 42.0654 29.5084
1 16.6778 40.7978 29.9242
1 16.114 40.002 30.8982
2 15.1097 40.2426 31.3166
1 16.7498 38.8488 31.3356
2 16.1154 38.1404 31.9752
1 17.9484 38.4502 30.7659
2 18.4198 37.5495 31.0523
1 18.6196 39.3285 29.8768
1 17.8733 40.4134 29.3782
2 18.3445 40.9713 28.5963
1 20.0544 39.0955 29.5474
1 14.2772 42.9759 27.1674
1 13.6421 42.1285 26.0846
1 12.2454 42.0369 25.8623
2 11.6017 42.5692 26.4473
1 11.7581 41.0922 24.9078
2 10.7456 41.0392 24.7275
1 12.6701 40.2919 24.1892
2 12.2225 39.6483 23.4092
1 14.0246 40.3731 24.4471
1 14.4871 41.293 25.3767
2 15.487 41.3301 25.5379
1 14.967 39.622 23.5765
1 16.7597 6.73872 20.7376
1 17.447 7.60604 19.7334
1 17.1346 8.95307 19.6017
2 16.3568 9.40835 20.2296
1 17.7435 9.77843 18.6331
2 17.4638 10.7899 18.5927
1 18.8756 9.29989 17.9762
2 19.3998 9.93703 17.2918
1 19.2467 7.93484 18.0567
1 18.3988 7.09543 18.816
2 18.6541 6.07793 18.8606
1 20.3796 7.35088 17.2894
1 16.1546 6.62064 24.8555
1 16.5239 6.92536 26.2901
1 15.648 7.59121 27.137