2256
 Atoms. Timestep: 0
1 34.9358 12.4342 6.07463
1 33.5112 12.0413 5.79834
1 32.7302 12.7019 4.83703
2 33.1707 13.4441 39.7325
1 31.4388 12.2093 40.0232
2 30.8708 12.5577 39.1582
1 30.9552 11.1751 5.28218
2 29.9531 10.8405 5.1648
1 31.6489 10.4958 6.22958
1 32.9544 10.9193 6.47988
2 33.5224 10.4878 7.26794
1 31.2508 9.16378 6.80905
1 38.1343 12.2317 8.94264
1 38.4984 11.7895 10.2943
1 38.9013 12.6794 11.3174
2 38.9736 13.7586 11.0893
1 39.3693 12.1798 12.5771
2 39.7193 12.7893 13.3731
1 39.3121 10.828 12.832
2 39.635 10.529 13.8264
1 38.9697 9.93547 11.804
1 38.5909 10.4301 10.5555
2 38.3418 9.75627 9.7605
1 38.7416 8.51145 12.1459
1 4.71989 13.8147 6.84786
1 6.12806 14.3132 6.97454
1 6.41079 15.6744 7.21707
2 5.61841 16.367 7.48053
1 7.73441 16.1094 7.27099
2 7.83961 17.0344 7.57183
1 8.80163 15.1851 7.24571
2 9.83931 15.5867 7.34478
1 8.55499 13.8759 7.01336
1 7.22315 13.4259 6.92446
2 7.03319 12.3667 6.84132
1 9.6262 12.8689 6.98503
1 38.2167 14.229 39.7887
1 38.6237 14.8485 38.5609
1 38.422 16.2073 38.3138
2 37.959 16.8288 39.1035
1 38.84 16.781 37.1143
2 38.486 17.7939 36.8085
1 39.4838 15.9966 36.1413
2 39.6858 16.4566 35.1844
1 39.6274 14.6175 36.3811
1 39.2235 14.0972 37.6288
2 39.4433 13.0805 37.8556
1 4.97357 13.7307 35.3841
1 29.7148 39.7346 6.05739
1 29.4487 38.3305 5.72596
1 28.299 37.6727 6.26807
2 27.5549 38.2074 6.88855
1 28.1156 36.2983 6.036
2 27.2765 35.7432 6.43884
1 29.0754 35.5662 5.34842
2 29.0329 34.5246 5.39644
1 30.2652 36.1505 4.81974
1 30.4509 37.5767 4.95349
2 31.3313 37.9956 40.0126
1 31.2155 35.2753 39.5229
1 32.0189 5.45662 8.83359
1 32.4624 5.1662 10.212
1 31.5308 4.92127 11.2559
2 30.4673 4.89052 10.9931
1 31.9458 39.9043 12.5571
2 31.2398 39.6498 13.3514
1 33.305 4.90748 12.9012
2 33.5888 5.03313 13.9241
1 34.2837 5.09906 11.88
1 33.8272 5.07845 10.5297
2 34.5385 5.28815 9.69202
1 35.6921 5.31282 12.1704
1 30.301 7.04179 39.9404
1 30.1298 7.59947 38.5498
1 28.9895 8.26932 38.1728
2 28.1602 8.43626 38.8384
1 28.8767 8.71769 36.8727
2 28.1121 9.39966 36.5434
1 29.8612 8.49337 35.8909
2 29.8143 8.85089 34.9052
1 30.9785 7.70864 36.25
1 31.1318 7.30606 37.5951
2 32.0358 6.73012 37.9175
1 31.9825 7.21862 35.2552
1 37.8988 39.2597 14.4238
1 37.9496 37.8713 14.8998
1 38.3417 37.5789 16.2034
2 38.4876 38.3476 16.8772
1 38.5355 36.2395 16.6442
2 38.7846 36.1361 17.661
1 38.2578 35.154 15.7997
2 38.3929 34.1493 16.1167
1 37.8925 35.4577 14.4961
1 37.6611 36.7954 14.0718
2 37.217 37.0313 13.0686
1 37.7516 34.3802 13.4662
1 5.1904 5.95283 13.614
1 6.51785 5.68847 14.2148
1 6.9495 6.34517 15.37
2 6.30073 6.94183 15.8835
1 8.2743 6.29502 15.8215
2 8.61914 6.79198 16.6861
1 9.20378 5.55297 15.1286
2 10.2619 5.61134 15.3493
1 8.77129 4.84805 13.9569
1 7.43092 4.85188 13.5697
2 7.01554 39.4053 12.6979
1 9.65694 39.2258 13.2091
1 32.1697 39.7235 33.7237
1 31.5065 38.4112 33.9988
1 30.3916 38.0551 33.2932
2 30.0651 38.6498 32.4268
1 29.8261 36.713 33.4731
2 29.0312 36.2922 32.8699
1 30.3136 35.9392 34.5296
2 29.7908 35.0203 34.7389
1 31.3759 36.3625 35.3208
1 31.9431 37.6238 35.0799
2 32.7833 37.8409 35.6777
1 32.0467 35.5213 36.3342
1 34.6666 8.88631 33.819
1 35.2799 10.1894 33.417
1 34.4768 11.3003 33.001
2 33.4027 11.143 32.9102
1 35.0367 12.5793 32.7749
2 34.5286 13.3746 32.3106
1 36.4107 12.7374 32.8654
2 36.9004 13.6167 32.4591
1 37.2057 11.6787 33.3118
1 36.6665 10.4377 33.5949
2 37.2997 9.56782 33.8633
1 38.7102 11.7948 33.4513
1 8.0673 12.4962 35.3585
1 9.30276 12.6898 36.1553
1 10.4543 13.3991 35.6209
2 10.5107 13.6606 34.567
1 11.584 13.6452 36.3814
2 12.3377 14.1726 35.9728
1 11.6663 13.1699 37.6977
2 12.5571 13.4056 38.3385
1 10.6086 12.4073 38.2582
1 9.41831 12.1171 37.4794
2 8.66169 11.4406 37.8217
1 10.7678 11.8224 39.6601
3 35.7363 11.5962 6.60439
3 35.3143 13.6139 5.87708
3 38.6652 11.6537 7.95584
3 37.3945 13.2159 8.7259
3 39.7138 12.5373 6.7888
3 39.0098 14.6589 6.80235
3 38.0042 12.9908 39.8623
3 37.9846 14.9877 5.36034
3 30.9973 4.94369 6.0745
3 28.8723 5.27427 6.52715
3 32.7104 5.16946 7.83628
3 30.943 6.06902 8.69419
3 32.1213 8.42985 7.3697
3 30.1528 8.63018 6.53178
3 31.3291 6.35809 4.73877
3 29.6244 7.66264 5.4461
3 38.1505 39.5054 13.1868
3 37.813 5.00608 15.2234
3 4.73874 5.11182 12.7587
3 39.7 6.86244 14.1108
3 38.3515 7.6717 11.2825
3 38.9209 8.06384 13.3397
3 36.5985 4.88322 11.3853
3 35.9815 6.05636 13.1874
3 33.2086 4.87035 34.4331
3 31.8595 5.22301 32.7351
3 32.8632 6.37324 35.623
3 32.1582 7.75181 34.1241
3 35.4311 7.99076 34.284
3 33.4838 8.57332 33.4887
3 35.8295 4.76987 33.7895
3 34.7445 5.56961 32.0762
3 39.2689 10.9105 34.1686
3 39.3239 12.8559 33.1135
3 5.50864 12.6092 35.6787
3 4.80572 13.9949 34.1455
3 7.08612 11.924 35.936
3 8.02461 12.7897 34.1303
3 7.04626 10.3028 32.778
3 6.27028 11.8555 31.3196
3 34.4489 32.7935 37.4111
3 33.0054 31.2067 37.7814
3 34.2104 34.1994 4.78478
3 32.3325 32.9571 40.0988
3 32.2523 35.7923 38.9576
3 31.1443 33.998 39.5846
3 32.5746 35.9972 37.3975
3 31.8687 34.2455 36.2321
3 37.5746 9.95375 5.2503
3 34.0836 7.01713 5.45099
3 39.3704 5.00503 9.73776
3 35.9682 5.96579 36.6149
3 5.91232 8.86778 35.5542
3 35.8413 35.6105 37.6429
4 37.766 11.805 6.06355
4 36.8607 14.2891 7.03974
4 32.4226 6.6081 6.50918
4 29.5406 6.92434 7.46727
4 38.4724 5.63001 11.537
4 37.5322 6.85479 14.2545
4 34.8415 6.157 34.924
4 33.1445 6.79338 32.3954
4 6.03057 10.7956 34.543
4 6.23086 13.1382 32.8269
4 34.0499 34.7082 38.2603
4 31.7056 32.8145 37.94
1 8.34766 32.0629 38.2736
1 9.78242 32.3352 38.6253
1 10.5628 31.2557 39.1997
2 10.1797 30.2597 39.4295
1 11.9109 31.5069 39.5491
2 12.4364 30.6969 40.0681
1 12.5703 32.7347 39.2281
2 13.5898 32.888 39.5387
1 11.7782 33.801 38.8081
1 10.347 33.6483 38.5014
2 9.71184 34.4417 38.163
1 12.4331 35.126 38.6123
1 6.47787 32.8127 35.2173
1 6.7164 33.2687 33.85
1 6.62178 32.3981 32.7281
2 6.25351 31.3723 32.8556
1 6.66605 32.9083 31.3992
2 6.5146 32.1982 30.577
1 6.93354 34.2369 31.1852
2 7.16338 34.5771 30.2022
1 7.06423 35.1133 32.2654
1 7.03101 34.6268 33.5915
2 7.22882 35.2722 34.4505
1 7.32732 36.5553 32.0535
1 38.9156 30.2648 37.0861
1 37.4914 29.8696 36.8886
1 37.0948 28.6102 36.4676
2 37.8004 27.8841 36.1504
1 35.7991 28.2607 36.4062
2 35.5186 27.2853 36.0763
1 34.7936 29.2268 36.6746
2 33.713 28.978 36.5647
1 35.1118 30.5135 37.0836
1 36.4619 30.814 37.1657
2 36.7597 31.7779 37.4666
1 34.0946 31.5395 37.389
1 5.85441 31.2794 40.0861
1 5.81266 30.818 6.04149
1 6.09461 29.4915 6.41852
2 6.67193 28.8528 5.79988
1 5.89304 29.0415 7.71604
2 6.3367 28.0512 8.02804
1 5.29486 29.9084 8.66328
2 5.14546 29.536 9.64086
1 4.83233 31.1757 8.29143
1 5.15841 31.5977 7.0042
2 4.90148 32.6038 6.74468
1 39.2274 31.9558 9.23171
1 14.1973 4.71383 39.2281
1 14.3981 6.19314 39.1546
1 15.5844 6.76552 38.6514
2 16.3989 6.13337 38.2755
1 15.8022 8.16407 38.8181
2 16.7377 8.58091 38.4657
1 14.8279 9.00102 39.3586
2 14.9902 10.0754 39.4947
1 13.6732 8.42919 39.8047
1 13.4314 7.04459 39.6986
2 12.4428 6.64385 40.0489
1 12.6977 9.36174 5.0224
1 13.0258 38.1178 36.6895
1 12.7398 38.3972 35.2502
1 13.8368 38.6161 34.3943
2 14.8273 38.4656 34.7371
1 13.6102 39.007 33.0974
2 14.4517 39.2593 32.5177
1 12.3301 39.0694 32.5394
2 12.2357 39.2224 31.4803
1 11.2607 38.8112 33.3774
1 11.45 38.4696 34.7503
2 10.4755 38.3066 35.298
1 9.88729 38.8353 32.8486
1 14.915 37.23 5.85854
1 15.297 37.4175 7.31196
1 16.5823 38.0055 7.61882
2 17.236 38.3173 6.80835
1 16.9052 38.31 8.90995
2 17.7999 38.7766 9.12608
1 15.9892 38.0662 9.91973
2 16.2379 38.4243 10.9463
1 14.6732 37.5345 9.64603
1 14.3423 37.189 8.30288
2 13.3021 36.8944 7.94856
1 13.6512 37.4689 10.6544
1 7.57429 6.00403 30.0859
1 7.36385 7.44855 29.7582
1 6.99327 7.7918 28.4907
2 6.71718 6.96338 27.8159
1 6.69168 9.12235 28.1707
2 6.23624 9.44568 27.2682
1 6.71545 10.1406 29.1323
2 6.6108 11.1806 28.7723
1 7.05853 9.76432 30.4626
1 7.41588 8.45714 30.7636
2 7.75551 8.21178 31.7772
1 6.81313 10.7267 31.5679
1 5.0648 38.667 31.5576
1 38.8342 38.5614 31.2273
1 38.4292 38.0825 29.9963
2 39.1465 37.5571 29.3124
1 37.0372 38.1253 29.688
2 36.6764 37.6453 28.7817
1 36.1164 38.8258 30.4707
2 35.0483 38.9219 30.1458
1 36.5805 39.3752 31.6827
1 37.9252 39.241 32.0397
2 38.1932 39.7065 32.9752
1 35.6947 4.90527 32.5358
1 11.531 5.16155 11.051
1 11.4482 6.65926 11.0642
1 12.0805 7.34198 12.0977
2 12.2861 6.74272 12.9915
1 12.1069 8.7801 12.1126
2 12.5923 9.40629 12.8886
1 11.6092 9.46308 10.9932
2 11.6017 10.5213 11.0851
1 10.9875 8.74714 9.95398
1 10.9212 7.34459 9.98981
2 10.4422 6.79874 9.20115
1 10.6904 9.46854 8.70425
1 9.70319 35.7624 12.1917
1 8.93924 34.4959 12.2063
1 9.50181 33.2761 12.6668
2 10.5227 33.2034 12.9928
1 8.66469 32.0842 12.6583
2 9.02391 31.0695 12.9604
1 7.30149 32.1795 12.3005
2 6.62643 31.3069 12.3443
1 6.8248 33.4073 11.8048
1 7.66307 34.4945 11.687
2 7.20858 35.387 11.2918
1 5.38698 33.534 11.4963
1 36.0011 33.1504 9.56253
1 34.632 33.0237 8.85367
1 33.4376 32.9262 9.63167
2 33.4504 33.0004 10.7103
1 32.2111 32.8225 8.93153
2 31.291 32.7238 9.42942
1 32.1651 33.0352 7.52324
2 31.2936 33.0743 7.04141
1 33.3461 33.1981 6.79436
1 34.578 33.1834 7.44792
2 35.5363 33.3049 6.88989
1 33.2961 33.4802 5.3269
3 7.67121 32.934 37.6344
3 7.84006 30.9226 38.4743
3 6.85525 33.4827 36.2915
3 6.14176 31.6361 35.3944
3 39.1762 31.5015 37.1614
3 39.8473 29.3897 37.1415
3 5.49239 32.4478 39.7857
3 6.33778 30.5231 39.169
3 13.0375 39.499 39.6215
3 14.936 39.0619 38.6705
3 12.1561 37.5699 37.437
3 14.258 38.1604 37.0661
3 11.743 36.1458 38.2536
3 13.676 35.2758 38.8817
3 13.6767 37.0793 5.63231
3 15.6711 37.5388 4.90737
3 7.5139 5.68578 31.3168
3 7.66396 5.08983 29.1911
3 5.43013 39.1523 32.6807
3 5.94791 38.4515 30.6683
3 7.64039 37.3096 33.0311
3 7.13227 37.0378 30.911
3 8.95499 38.1597 33.4315
3 9.63434 39.4344 31.8186
3 10.821 39.7629 10.1357
3 11.8355 39.6922 12.0925
3 12.4371 37.5556 10.309
3 13.9253 37.362 11.8973
3 9.10536 36.8253 11.9654
3 10.9525 35.8367 12.1543
3 9.19958 38.3973 12.2954
3 10.9273 39.3243 13.3362
3 5.01824 34.3931 10.6102
3 39.8488 32.6393 11.8868
3 38.6539 32.9881 8.83042
3 39.1066 31.5932 10.4853
3 37.0485 33.4568 8.92647
3 36.0869 33.2254 10.8324
3 37.9126 34.7137 12.2418
3 37.7198 33.1638 13.8167
3 9.33689 11.6934 6.59077
3 10.8066 13.1531 7.17514
3 9.80723 11.31 4.76899
3 11.955 11.911 4.7027
3 11.6924 8.82317 5.50237
3 12.8878 10.6546 5.08541
3 9.67368 9.16375 7.9473
3 11.557 10.2847 8.2274
3 39.3845 34.5153 38.0205
3 10.6719 37.7266 5.36485
3 7.55212 5.40868 34.5839
3 9.23516 36.7133 9.13275
3 37.8708 36.6479 9.56692
3 8.34274 8.51287 5.59553
4 5.41536 32.9039 37.7784
4 6.44164 30.2489 37.015
4 12.3471 37.5621 39.6207
4 14.9403 36.8172 38.5358
4 7.31725 39.4324 32.9648
4 8.15254 38.7924 30.3831
4 10.2818 37.7667 10.5221
4 12.0417 37.529 12.7863
4 38.2517 34.6301 10.1806
4 37.6117 32.4009 11.9162
4 9.93008 9.67933 6.05734
4 12.2164 11.6572 6.85346
2 10.6149 38.3868 6.07766
2 9.92233 37.504 4.84789
2 34.22 6.59017 40.0281
2 34.712 7.67056 5.79515
2 36.0696 36.4961 37.9345
2 36.3673 35.1583 37.0023
2 36.8351 6.42661 36.516
2 35.9933 5.16454 37.0786
2 8.33312 7.56047 5.3907
2 7.5166 8.99675 5.74457
2 36.835 9.38788 5.43829
2 38.1544 9.68402 39.9405
2 4.9687 8.75839 35.7334
2 6.64021 8.60841 36.2114
2 9.70075 36.5289 8.28625
2 8.3233 36.6126 9.3128
2 5.09278 4.89202 9.64307
2 38.76 39.7607 9.09839
2 37.0201 36.9355 9.21746
2 38.6887 37.1983 9.5722
2 6.97072 5.1775 35.3395
2 8.46635 5.67193 34.7745
2 38.9003 34.7203 38.8553
2 39.3853 35.1207 37.2656
1 31.3308 19.9843 17.0569
1 30.4508 19.8363 18.2086
1 29.0414 19.7883 18.0565
2 28.625 19.8202 17.0018
1 28.2556 19.8793 19.172
2 27.2175 19.81 19.0613
1 28.7516 20.0727 20.4424
2 28.0528 20.2816 21.2921
1 30.1094 20.0918 20.6284
1 30.9616 19.9874 19.5054
2 32.0147 20.2224 19.7083
1 30.6315 20.3394 21.9606
1 33.3139 23.0767 15.4925
1 33.1266 24.5009 15.3933
1 33.1004 25.0858 14.1171
2 33.1742 24.508 13.2342
1 32.9592 26.5186 14.0647
2 33.0631 26.9815 13.0791
1 32.5998 27.2641 15.2135
2 32.3818 28.343 15.1147
1 32.5308 26.6082 16.4724
1 32.9039 25.265 16.5476
2 32.8217 24.7939 17.5562
1 32.5232 27.3906 17.7771
1 34.8637 21.5868 13.4862
1 35.7185 22.293 12.5227
1 35.3295 22.5114 11.1804
2 34.2928 22.2735 10.7892
1 36.2744 23.0042 10.2918
2 36.0612 23.2152 9.24259
1 37.5328 23.4045 10.6952
2 38.1377 23.9557 10.0267
1 37.9233 23.2128 12.0304
1 37.0483 22.6111 12.9146
2 37.27 22.6177 14.0476
1 39.1694 23.7318 12.5188
1 35.0142 18.5213 14.9009
1 35.7965 17.3386 14.5105
1 35.1504 16.1516 14.1633
2 34.0805 16.1307 14.1283
1 35.881 14.9411 14.0683
2 35.4253 13.9866 13.9968
1 37.2386 14.9489 14.3513
2 37.7864 13.9782 14.3308
1 37.9248 16.1768 14.5416
1 37.215 17.3396 14.5824
2 37.7358 18.2386 14.8388
1 39.3184 16.2096 15.0304
1 32.5551 21.1519 26.81
1 32.9474 21.087 28.26
1 32.2215 21.7886 29.2185
2 31.5028 22.5715 28.952
1 32.5742 21.7272 30.5475
2 31.96 22.37 31.2501
1 33.6586 21.0474 30.9424
2 33.9443 21.1444 31.9775
1 34.4705 20.4068 30.0072
1 34.088 20.3961 28.627
2 34.6945 19.856 27.9099
1 35.8307 20.0409 30.3485
1 30.3645 22.9075 23.6128
1 29.8204 24.1129 22.9772
1 28.5431 24.5487 23.3018
2 27.9013 24.0007 23.9733
1 28.0141 25.7571 22.7639
2 27.0578 26.1257 22.9502
1 28.8246 26.514 21.8588
2 28.5277 27.4182 21.3991
1 30.2108 26.1252 21.6476
1 30.6772 24.9173 22.1481
2 31.7301 24.7012 22.1231
1 31.1403 26.9894 20.905
1 32.3156 18.3313 23.5957
1 32.6232 16.9297 23.1904
1 31.6156 16.1813 22.5598
2 30.6466 16.6514 22.3521
1 31.9258 14.907 22.1514
2 31.1457 14.2739 21.7559
1 33.1496 14.3166 22.5215
2 33.2246 13.2983 22.2991
1 34.1793 15.106 23.1315
1 33.9069 16.4277 23.4044
2 34.6619 17.0493 23.9255
1 35.478 14.4627 23.4227
1 32.8594 28.6757 22.5148
1 32.6095 28.6306 23.9888
1 31.3461 28.6666 24.6804
2 30.4563 28.6968 24.031
1 31.321 28.5506 26.0893
2 30.391 28.6065 26.6664
1 32.5754 28.4389 26.7804
2 32.4868 28.4058 27.8737
1 33.8285 28.4154 26.1248
1 33.7847 28.5696 24.7394
2 34.8137 28.8465 24.2781
1 35.0952 28.3159 26.9059
1 33.8943 31.1299 19.7811
1 35.0304 32.0781 19.8557
1 34.7944 33.4669 20.0654
2 33.8153 33.8849 20.1073
1 35.8858 34.3407 20.2373
2 35.7397 35.381 20.4612
1 37.206 33.8988 20.1447
2 37.9666 34.7243 20.0268
1 37.4797 32.524 20.0076
1 36.3849 31.6395 19.7792
2 36.6223 30.6129 19.5592
1 38.9214 32.0644 20.1073
1 37.6782 13.7728 26.0675
1 37.7429 14.0531 27.5356
1 37.9253 13.029 28.4755
2 37.8728 12.0347 28.2108
1 38.1479 13.319 29.8072
2 38.2788 12.5176 30.5571
1 38.303 14.6559 30.2208
2 38.5933 14.9396 31.2409
1 38.1121 15.6739 29.2385
1 37.8501 15.3836 27.9676
2 37.84 16.1844 27.2311
1 38.2513 17.1133 29.6447
1 38.2989 12.1849 21.2812
1 38.8226 11.8686 19.8808
1 38.6516 10.6083 19.3714
2 38.2538 9.83466 20.0181
1 38.9429 10.3602 17.9719
2 39.0486 9.39091 17.6756
1 39.5072 11.4464 17.1648
2 39.8745 11.1477 16.149
1 39.7959 12.7096 17.7626
1 39.3665 12.9483 19.1048
2 39.4652 13.9341 19.5256
1 5.12456 13.8197 16.9947
1 6.85112 17.0023 13.5074
1 6.83081 18.1665 12.5603
1 7.11826 17.9493 11.2148
2 7.37202 16.9181 10.9292
1 7.0086 18.9908 10.3316
2 7.15909 18.8557 9.25321
1 6.72033 20.2742 10.7838
2 6.70093 21.1129 10.0694
1 6.63823 20.606 12.1688
1 6.59832 19.4938 13.0528
2 6.46137 19.6588 14.1303
1 6.47898 22.0313 12.6673
3 32.5555 20.1563 17.2459
3 30.8913 19.9755 15.8678
3 34.1519 22.6767 16.3421
3 32.664 22.2639 14.7195
3 35.4132 21.0503 14.5856
3 33.5891 21.6629 13.4255
3 35.5569 19.6594 15.1446
3 33.7482 18.5072 14.865
3 33.2422 20.5526 25.9063
3 31.4028 21.5811 26.5144
3 31.6553 22.7309 23.5734
3 29.5812 21.8852 23.8916
3 31.9022 20.3498 22.1746
3 29.8478 20.4293 22.9687
3 32.9273 19.3021 23.0724
3 31.5437 18.5071 24.5651
3 33.7237 27.8958 22.037
3 32.0728 29.2761 21.7203
3 34.1064 29.8583 19.8798
3 32.6626 31.4652 19.8388
3 32.802 26.6863 18.8295
3 32.6448 28.6412 17.7826
3 32.2538 26.5494 20.4083
3 30.9516 28.2278 20.848
3 37.4674 14.734 25.2005
3 38.0119 12.6335 25.6119
3 36.4021 15.0807 24.0727
3 35.6805 13.284 23.0559
3 38.2718 13.4026 21.6174
3 38.1723 11.2755 22.1986
3 4.87471 14.2898 23.9699
3 39.4032 12.2737 24.3119
3 5.69705 14.7564 17.6157
3 5.2849 13.752 15.7561
3 39.8029 17.1819 15.7432
3 4.86613 15.2007 14.7688
3 6.62962 17.2008 14.7374
3 7.05302 15.779 13.0924
3 7.99573 17.3145 17.4287
3 8.48842 15.492 16.2248
3 5.19974 19.5357 30.8719
3 39.4315 20.027 32.7447
3 38.0628 21.5971 30.2333
3 38.0153 21.069 32.3609
3 36.8072 20.3798 29.5603
3 36.05 19.5117 31.4404
3 38.0676 18.0227 28.7912
3 38.5975 17.3966 30.8727
3 35.6335 20.251 18.062
3 34.7798 22.1044 23.7379
3 35.8668 27.1896 19.7451
3 38.247 16.5864 22.2945
3 6.67686 17.8907 18.3948
3 4.71077 20.2284 27.8414
4 34.4562 20.7382 16.5212
4 32.3835 20.14 14.499
4 32.9846 21.1584 23.9955
4 30.4066 20.334 25.0983
4 33.9859 27.8099 20.0999
4 31.7964 29.6753 19.5818
4 38.1737 14.7511 23.1907
4 37.2434 12.0166 23.8143
4 6.28658 16.5143 16.7498
4 6.98086 14.6742 14.8453
4 38.8189 19.7452 29.5376
4 37.8644 18.8606 32.2548
1 12.1764 24.633 27.2983
1 13.2113 24.8234 26.2518
1 14.5648 25.1656 26.5849
2 14.8445 25.325 27.625
1 15.5448 25.4098 25.6298
2 16.531 25.5995 25.9254
1 15.2663 25.3391 24.2914
2 16.0525 25.5608 23.5495
1 14.0081 24.8157 23.8893
1 13.0063 24.5954 24.8857
2 12.0105 24.1983 24.6621
1 13.6206 24.6639 22.4489
1 11.6975 21.8462 29.0641
1 12.2056 20.4821 28.8436
1 12.9087 19.7748 29.8694
2 13.008 20.2654 30.826
1 13.2577 18.4566 29.6656
2 13.6161 17.9583 30.4966
1 12.7664 17.7638 28.529
2 12.9944 16.6985 28.439
1 12.2305 18.467 27.468
1 11.8896 19.8368 27.6472
2 11.2499 20.3187 26.8773
1 11.833 17.8089 26.2074
1 9.3408 22.4461 30.9525
1 8.64535 21.5868 31.901
1 9.13221 21.357 33.2297
2 10.1233 21.716 33.4804
1 8.21957 20.8788 34.2302
2 8.54066 20.7877 35.2924
1 6.88447 20.5604 33.8861
2 6.15927 20.15 34.6363
1 6.52451 20.4899 32.5041
1 7.40428 21.0155 31.576
2 7.11771 21.0377 30.5189
1 5.2488 19.8906 32.0227
1 8.77273 26.2014 29.9153
1 7.85967 27.3075 30.3661
1 7.99434 27.8895 31.6255
2 8.76395 27.4965 32.2683
1 7.00659 28.7549 32.1497
2 7.07517 29.0303 33.2145
1 5.82533 29.0081 31.4101
2 5.00255 29.5635 31.8558
1 5.70971 28.5351 30.0747
1 6.73631 27.6873 29.5907
2 6.54861 27.2167 28.6215
1 39.6825 28.6757 29.3324
1 12.1282 23.7359 17.5804
1 11.6415 23.3088 16.2165
1 12.4871 22.5745 15.3343
2 13.4423 22.1815 15.7345
1 12.0589 22.2551 14.0729
2 12.7178 21.6703 13.3782
1 10.8146 22.5907 13.6265
2 10.4506 22.2179 12.6628
1 9.95247 23.306 14.519
1 10.3941 23.7441 15.7492
2 9.79025 24.3213 16.3848
1 8.60757 23.6526 14.1426
1 14.3158 22.1564 20.7894
1 14.8626 20.9755 21.4531
1 16.2639 20.598 21.2445
2 16.9246 21.1573 20.6354
1 16.6318 19.3498 21.7321
2 17.7009 19.1193 21.5639
1 15.6849 18.461 22.2047
2 15.9974 17.4625 22.4435
1 14.3803 18.904 22.4574
1 14.0176 20.1758 22.1426
2 13.0264 20.5546 22.2977
1 13.3857 18.0236 23.1263
1 11.9667 26.5287 20.694
1 11.4724 27.8457 21.0866
1 12.4265 28.7415 21.6916
2 13.5016 28.4672 21.7459
1 11.9365 29.9357 22.2365
2 12.6281 30.6122 22.7279
1 10.6275 30.345 21.9105
2 10.3677 31.3743 22.1826
1 9.75952 29.4671 21.2397
1 10.1706 28.24 20.8185
2 9.43669 27.5839 20.3384
1 8.35168 29.9169 20.8844
1 11.3552 16.4021 21.3848
1 11.3865 16.2474 19.9159
1 12.5173 15.8628 19.256
2 13.3875 15.7624 19.8532
1 12.5322 15.7125 17.8585
2 13.4631 15.4986 17.3611
1 11.3681 15.9508 17.1448
2 11.296 15.6195 16.1242
1 10.1735 16.3126 17.7505
1 10.2117 16.4439 19.1899
2 9.34044 16.7584 19.8437
1 8.84347 16.4043 17.0919
1 10.0503 14.247 24.4645
1 8.9554 13.2816 24.6978
1 9.18407 11.9838 25.2681
2 10.1976 11.7454 25.6546
1 8.13238 11.0704 25.5011
2 8.28598 10.0594 25.8441
1 6.81863 11.4655 25.17
2 5.96922 10.8033 25.2484
1 6.55005 12.7161 24.6437
1 7.60094 13.6557 24.4068
2 7.37279 14.6703 24.0394
1 5.108 13.0978 24.2706
1 6.31844 30.2072 18.0532
1 6.02071 29.8075 16.6848
1 5.34929 30.7358 15.8388
2 5.09206 31.7192 16.1806
1 4.98721 30.3627 14.5196
2 39.6492 31.057 13.9077
1 5.18843 29.1031 14.1187
2 4.78464 28.8213 13.1398
1 5.84216 28.1322 14.9446
1 6.18508 28.4856 16.2549
2 6.57433 27.6903 16.8835
1 5.90936 26.7129 14.4382
1 5.73092 32.0557 22.8175
1 5.28607 32.3331 24.1983
1 5.33929 33.6211 24.7146
2 5.72101 34.4261 24.0918
1 4.79572 33.8371 26.0173
2 4.90618 34.8954 26.4258
1 39.4512 32.8575 26.7873
2 38.8398 33.0781 27.7291
1 39.3984 31.5715 26.2316
1 4.70348 31.3382 24.9766
2 39.8842 30.3344 24.6066
1 38.6711 30.4665 26.9405
1 37.4461 26.7039 30.2123
1 37.6204 25.6673 31.2253
1 37.4025 26.0255 32.6201
2 36.9606 26.9896 32.9158
1 37.4134 25.03 33.5806
2 37.1181 25.3105 34.6579
1 37.7058 23.6949 33.2682
2 37.5974 22.995 34.0278
1 37.9404 23.3136 31.8847
1 37.9669 24.3593 30.9416
2 38.26 24.1229 29.9708
1 37.9825 21.9403 31.4603
3 11.1991 23.8169 27.0847
3 12.3416 25.1352 28.4501
3 11.0482 22.4568 28.0812
3 11.7854 22.4245 30.2083
3 8.73141 22.797 29.9038
3 10.5281 22.8427 31.2309
3 8.80648 25.8354 28.7048
3 9.58699 25.6548 30.6765
3 11.36 24.408 18.3104
3 13.249 23.3949 18.04
3 13.0593 22.1896 20.5472
3 14.992 23.2055 20.6093
3 12.4299 24.407 22.0965
3 14.4919 24.7296 21.5553
3 11.3963 25.4599 21.143
3 12.9229 26.4576 19.8788
3 10.4988 17.1189 21.8952
3 12.1753 15.8015 22.1391
3 9.78063 15.4659 24.4015
3 11.2219 13.7995 24.1887
3 11.7511 18.4541 25.1385
3 11.7961 16.5503 26.1452
3 12.3649 18.4898 23.7188
3 13.4259 16.794 23.0303
3 6.59163 29.2994 18.9212
3 6.27629 31.4451 18.3999
3 7.47292 29.1725 20.348
3 8.08919 31.0961 21.1529
3 5.95221 30.795 22.5084
3 5.7458 32.9437 21.9279
3 39.1765 30.8123 19.9455
3 4.66821 32.8638 20.5104
3 38.8844 29.2627 26.6037
3 37.8088 30.7291 27.8499
3 39.6404 28.2413 28.1323
3 38.6132 29.0501 29.9441
3 37.656 26.413 28.9542
3 37.3419 27.9318 30.5645
3 36.1614 28.3306 26.2706
3 35.1495 28.3805 28.1725
3 39.3448 23.7868 13.7585
3 4.92992 23.9586 11.7206
3 6.40068 22.2418 13.9284
3 6.3363 23.0393 11.8342
3 7.62119 23.1257 14.7752
3 8.44614 24.4854 13.1664
3 6.48423 25.8912 15.1587
3 5.46464 26.3733 13.3104
3 8.03915 23.5699 26.6232
3 9.79754 22.8374 20.4138
3 8.66573 18.5963 24.4839
3 39.6244 28.1103 21.469
3 38.2538 25.9936 25.8384
3 5.00805 23.6315 16.849
4 9.38117 23.8716 28.2133
4 11.2941 24.5128 30.2552
4 11.6196 23.7282 20.2333
4 14.1858 24.7257 19.3979
4 10.4363 17.4908 23.8767
4 12.5067 15.4727 24.3338
4 5.57454 29.718 20.7839
4 6.73725 32.3274 20.3082
4 37.8244 27.5682 27.1194
4 36.7197 29.4247 29.1022
4 5.74371 23.945 14.9864
4 6.59414 25.0458 12.3069
2 9.27151 22.9042 21.24
2 9.41663 22.1993 19.8217
2 34.9766 22.8007 24.3965
2 35.2392 22.0072 22.8604
2 39.612 19.7917 27.0489
2 5.47857 20.8558 27.8211
2 37.4751 16.8944 21.8309
2 39.0918 16.8971 21.8545
2 39.7454 24.3119 17.2209
2 5.15156 22.7901 17.3055
2 36.5387 20.081 17.7664
2 35.3691 19.6708 18.8288
2 6.73945 17.5686 19.3111
2 6.2669 18.7829 18.3509
2 39.4124 28.2091 22.4242
2 39.6411 27.1826 21.1709
2 36.4687 27.7234 19.2536
2 36.1686 26.2886 20.0939
2 38.8944 26.1257 25.0682
2 37.7847 25.1727 25.8226
2 8.40215 19.2687 23.8625
2 7.9747 18.1927 24.9814
2 7.14119 23.7873 26.7771
2 8.417 23.1738 25.7935
1 31.6467 9.78648 21.8177
1 32.6454 8.92053 22.517
1 33.9523 9.3271 22.588
2 34.333 10.2134 22.0436
1 34.9632 8.43666 23.03
2 36.0156 8.56765 22.8469
1 34.606 7.18253 23.4838
2 35.3591 6.45379 23.8314
1 33.2771 6.73505 23.3328
1 32.3073 7.60747 22.8714
2 31.2666 7.26563 22.6813
1 32.9088 5.38028 23.7465
1 29.3609 9.85502 18.227
1 29.4838 8.99718 17.046
1 30.0849 9.529 15.9072
2 30.3989 10.5483 15.8854
1 30.3331 8.73108 14.8367
2 30.778 9.20486 13.9163
1 30.1172 7.31641 14.9335
2 30.3987 6.71697 14.0742
1 29.5089 6.75251 16.0466
1 29.0863 7.60022 17.0682
2 28.4894 7.25139 17.9102
1 29.1115 5.33382 16.0878
1 28.2962 13.0989 20.2386
1 27.2853 14.1534 20.2331
1 27.6489 15.5072 19.9955
2 28.6543 15.8348 19.9988
1 26.7324 16.5042 19.8388
2 26.9492 17.5549 19.788
1 25.3629 16.223 19.9642
2 24.6569 16.9988 19.7653
1 24.9153 14.8549 20.2121
1 25.9433 13.8315 20.2583
2 25.5849 12.7721 20.41
1 23.4925 14.4559 20.0453
1 29.341 11.932 22.9748
1 29.2302 12.2815 24.3908
1 30.3624 12.7713 25.0668
2 31.3353 12.9632 24.5982
1 30.3096 13.122 26.4138
2 31.2374 13.3888 26.9858
1 29.1329 12.935 27.1061
2 29.0326 13.1917 28.1076
1 27.9594 12.4598 26.4542
1 28.0347 12.2547 25.1181
2 27.1598 11.8322 24.5722
1 26.7827 12.0905 27.193
1 30.8696 36.0085 23.824
1 30.4479 34.594 23.5944
1 31.4541 33.6879 23.3079
2 32.4313 33.9862 23.1851
1 31.1354 32.3084 23.2288
2 31.9492 31.5787 23.1067
1 29.8355 31.8628 23.5168
2 29.6652 30.8157 23.6882
1 28.7898 32.8135 23.6388
1 29.131 34.1774 23.6463
2 28.3964 34.9395 23.8819
1 27.3717 32.4091 23.9985
1 32.4162 38.0279 21.9734
1 32.8413 37.7838 20.5595
1 34.1389 37.5101 20.144
2 34.9663 37.6205 20.9103
1 34.4015 37.2571 18.8164
2 35.4209 37.0539 18.4494
1 33.3952 37.2625 17.8174
2 33.6347 36.9264 16.7572
1 32.128 37.6064 18.1937
1 31.8758 37.9195 19.5763
2 30.8453 38.2461 19.7718
1 31.0335 37.7023 17.2371
1 30.6941 38.9263 26.7478
1 30.1947 39.4041 28.0342
1 30.8012 5.29755 28.8073
2 31.6169 5.82296 28.4461
1 30.2027 5.75571 29.974
2 30.5042 6.66243 30.4399
1 29.0805 5.15949 30.4783
2 28.4544 5.58706 31.2661
1 28.5137 39.2289 29.8221
1 29.0616 38.7442 28.6342
2 28.5113 38.0067 28.0338
1 27.1451 38.803 30.1959
1 27.2394 35.8707 16.3053
1 26.6587 34.4812 16.2505
1 27.512 33.3357 16.0756
2 28.5892 33.485 16.0788
1 26.9691 32.0665 15.8893
2 27.5684 31.2664 15.7352
1 25.5808 31.8799 16.0393
2 25.1942 30.8626 16.0343
1 24.7563 33.0561 16.1798
1 25.3189 34.3167 16.2463
2 24.7134 35.1772 16.2378
1 23.2825 32.8849 16.2681
1 26.8604 38.8524 14.4402
1 25.9278 39.6394 13.6399
1 26.3036 4.73714 12.27
2 27.1739 39.6123 11.8604
1 25.3292 5.26891 11.3744
2 25.6818 5.62853 10.43
1 24.0739 5.63002 11.8898
2 23.4152 6.18494 11.2696
1 23.6971 5.33039 13.223
1 24.5749 39.8727 14.0805
2 24.2678 39.467 15.0042
1 22.2603 5.52113 13.6402
1 24.0873 35.6856 30.4265
1 23.7962 34.296 30.1392
1 23.1997 33.4395 31.0507
2 22.8818 33.8093 32.0334
1 22.9844 32.0934 30.7132
2 22.4639 31.4647 31.4064
1 23.3983 31.601 29.4399
2 23.3478 30.5691 29.2665
1 23.9448 32.4787 28.5079
1 24.2169 33.8165 28.8794
2 24.6429 34.4953 28.1535
1 24.3345 31.9877 27.1942
1 25.0811 5.21685 32.0555
1 25.156 6.65331 32.5039
1 25.2807 7.00264 33.842
2 25.0762 6.2637 34.5812
1 25.3512 8.36771 34.2441
2 25.2684 8.64238 35.2825
1 25.3093 9.3758 33.3229
2 25.2031 10.3984 33.6196
1 25.2525 9.05734 31.9584
1 25.2956 7.72054 31.5425
2 25.4894 7.42114 30.5385
1 25.1071 10.1636 30.9477
1 23.5384 12.9779 26.9574
1 22.6611 13.7414 26.0848
1 21.8757 14.7678 26.6595
2 21.8411 14.9788 27.7528
1 21.1006 15.6012 25.8294
2 20.5528 16.4684 26.2155
1 20.9162 15.2538 24.4614
2 20.3687 15.9343 23.7828
1 21.6258 14.1775 23.918
1 22.6054 13.502 24.7548
2 23.3114 12.8447 24.3159
1 21.5121 13.7596 22.4621
3 30.667 9.2194 21.1683
3 31.748 11.0393 21.8108
3 28.3028 9.80667 18.867
3 30.3622 10.4652 18.6952
3 27.9977 11.9799 20.7731
3 29.5106 13.3511 19.897
3 28.3309 11.5123 22.3188
3 30.4651 12.0568 22.3395
3 30.2182 36.9385 23.1996
3 31.8346 36.3156 24.5874
3 31.164 38.1309 22.1957
3 33.2592 38.176 22.9325
3 31.6577 5.11892 23.8371
3 33.7055 39.6482 23.9775
3 30.0066 38.261 25.9532
3 31.8719 39.2446 26.4454
3 26.4922 36.9122 16.3568
3 28.4443 36.0087 16.0172
3 26.4733 38.2142 15.4941
3 28.0845 38.9301 14.1418
3 28.2889 4.99314 16.9654
3 29.4848 39.7017 15.211
3 29.8136 37.8263 17.6725
3 31.2622 37.7308 15.9801
3 24.5894 36.4164 29.5212
3 23.7719 36.2026 31.5459
3 26.183 39.5491 29.823
3 26.8567 37.7013 30.7773
3 24.964 4.93535 30.8078
3 25.0639 39.5197 32.9022
3 22.8042 39.1242 30.678
3 23.036 37.4414 32.0971
3 25.0708 9.78992 29.7486
3 25.1388 11.3993 31.302
3 25.7683 11.6131 26.5952
3 26.7704 12.0635 28.4753
3 24.0696 11.9308 26.5444
3 23.4953 13.2167 28.2463
3 22.8651 10.1497 28.4744
3 22.9163 12.0841 29.3762
3 22.8021 31.8368 24.0663
3 23.357 30.3021 25.5427
3 24.1807 31.5287 22.7189
3 24.9714 29.4935 23.3313
3 26.3667 32.7823 23.3367
3 27.1707 31.5883 24.9631
3 24.7612 32.8592 26.3651
3 24.2422 30.7974 26.8526
3 27.7728 8.55059 22.0123
3 28.2819 39.6718 23.6081
3 27.0361 37.9805 19.1922
3 24.2519 38.5322 27.5926
3 24.9035 8.48198 26.4436
3 24.0728 34.8443 23.94
4 28.7763 9.9453 20.8199
4 30.8945 11.909 20.1798
4 30.2288 38.8744 23.9867
4 32.9478 38.0211 25.1188
4 27.7349 38.3253 17.2671
4 29.4789 37.4905 14.9916
4 24.4347 38.5569 29.6289
4 25.2321 37.5266 32.2166
4 24.7577 10.1924 27.5749
4 25.0528 12.4919 29.4981
4 24.5802 32.8479 24.3361
4 25.5374 30.2298 25.2157
1 14.9145 35.9351 22.0308
1 14.0186 36.8534 21.3672
1 12.7753 36.4353 20.837
2 12.5305 35.4139 20.884
1 11.9092 37.375 20.2696
2 10.9863 37.0041 19.8643
1 12.1972 38.7205 20.3129
2 11.6051 39.3784 19.6365
1 13.3558 39.1295 20.975
1 14.2765 38.2135 21.4982
2 15.1429 38.5591 22.0197
1 13.7732 5.36158 21.0237
1 15.902 34.8568 26.2031
1 15.536 35.5454 27.4892
1 14.9185 34.8413 28.5407
2 14.7627 33.7625 28.5167
1 14.4407 35.5169 29.6918
2 13.8687 34.9561 30.4113
1 14.6782 36.9156 29.882
2 14.4578 37.4296 30.786
1 15.286 37.6321 28.8075
1 15.6604 36.9762 27.6212
2 16.051 37.4871 26.773
1 15.626 39.0788 28.9038
1 17.5667 32.3123 24.4367
1 18.5955 31.2627 24.8048
1 18.2755 30.1567 25.5262
2 17.2645 29.9693 25.8575
1 19.272 29.2316 25.9773
2 19.0012 28.3355 26.3938
1 20.587 29.5165 25.8047
2 21.325 28.7828 26.2418
1 20.9906 30.6311 25.0042
1 19.966 31.5184 24.5897
2 20.1878 32.515 24.2061
1 22.4643 30.9405 24.8983
1 15.9437 32.2943 21.7485
1 16.224 31.4705 20.5433
1 15.4029 30.4449 20.0705
2 14.5463 30.1368 20.5938
1 15.6921 29.8202 18.8452
2 15.1308 29.0151 18.4748
1 16.8013 30.1476 18.0675
2 16.904 29.6921 17.0433
1 17.5979 31.2202 18.5268
1 17.3913 31.7362 19.8054
2 18.0971 32.4445 20.2122
1 18.7979 31.6381 17.8855
1 14.7863 10.1898 20.7883
1 15.3431 11.5428 20.826
1 14.5904 12.644 21.2369
2 13.5464 12.4758 21.4266
1 15.1803 13.9166 21.3729
2 14.5653 14.8208 21.5893
1 16.5793 14.0402 21.2631
2 17.0844 15.0215 21.507
1 17.3088 12.9471 20.7886
1 16.7061 11.7252 20.6202
2 17.2125 10.9138 20.1018
1 18.7501 13.0528 20.6253
1 12.5728 8.34316 23.5724
1 12.2419 8.32775 25.0331
1 10.9918 8.6 25.5672
2 10.1645 8.97571 24.9231
1 10.7354 8.42742 26.9678
2 9.80156 8.6085 27.4157
1 11.7323 8.00939 27.838
2 11.5497 7.93545 28.8846
1 13.0166 7.85565 27.3094