2256
 Atoms. Timestep: 0
1 43.8895 6.62185 4.29762
1 42.7166 7.25075 3.63989
1 42.0577 8.28176 4.31256
2 42.4561 8.70397 5.21635
1 40.8942 8.77456 3.82986
2 40.4269 9.60279 4.41065
1 40.3064 8.22243 2.70215
2 39.338 8.58752 2.40404
1 40.9194 7.19466 1.98945
1 42.1679 6.74061 2.43094
2 42.7204 5.94768 1.93493
1 40.3256 6.71473 0.698765
1 43.8621 4.45408 6.66733
1 42.6296 3.7883 7.16597
1 41.8752 4.54677 8.08391
2 42.1618 5.52606 8.46351
1 40.6067 4.03962 8.47225
2 40.0461 4.55037 9.22773
1 40.1287 2.8122 8.01252
2 39.2461 2.41046 8.44268
1 40.8783 2.08114 7.03876
1 42.1454 2.56463 6.57656
2 42.697 2.10783 5.75878
1 40.318 0.812528 6.54033
1 0.694464 4.37218 7.00067
1 1.77523 3.60449 7.68467
1 2.05221 3.81067 9.02241
2 1.68995 4.63086 9.66814
1 2.94152 2.95812 9.69513
2 3.24376 3.08404 10.7224
1 3.67374 1.99079 8.9279
2 4.29925 1.28808 9.50317
1 3.50456 1.80984 7.57633
1 2.52756 2.67297 6.93101
2 2.24526 2.46523 5.90298
1 4.29919 0.75851 6.83894
1 0.85089 6.52728 4.40697
1 1.8694 7.25625 3.66384
1 2.13182 8.61206 3.91874
2 1.5046 9.1796 4.57906
1 3.12196 9.34305 3.23107
2 3.33506 10.3644 3.50579
1 3.835 8.69188 2.22541
2 4.63012 9.21318 1.69996
1 3.53875 7.28657 1.84748
1 2.6017 6.64229 2.67814
2 2.33167 5.59542 2.44873
1 4.13796 6.61713 0.665089
1 37.9813 4.01181 44.0324
1 37.3513 3.14257 42.9812
1 36.1116 3.54772 42.4761
2 35.665 4.50334 42.7794
1 35.5638 2.87846 41.3821
2 34.7309 3.28643 40.9626
1 36.1927 1.72896 40.8303
2 35.7661 1.24345 39.9755
1 37.4653 1.32668 41.3205
1 38.042 2.08368 42.3534
2 39.0157 1.77142 42.7373
1 38.1199 0.163555 40.6001
1 38.0247 4.45276 0.767351
1 37.432 3.87906 2.02677
1 36.6232 4.6761 2.87911
2 36.3112 5.67691 2.5981
1 35.9427 4.03088 3.93247
2 35.18 4.55529 4.41124
1 36.2854 2.75 4.36047
2 35.7364 2.39005 5.21083
1 37.2593 2.05251 3.64745
1 37.7436 2.57041 2.45939
2 38.5595 2.07872 1.94532
1 37.7735 0.82337 4.30571
1 40.3201 6.60385 44.0728
1 40.9569 7.22274 42.9041
1 40.5398 8.44634 42.4224
2 39.6457 8.85501 42.8143
1 41.1705 9.04463 41.343
2 40.7059 9.90374 40.932
1 42.3488 8.47569 40.7186
2 42.7593 8.96901 39.8478
1 42.7003 7.1818 41.1274
1 41.9259 6.5308 42.1393
2 42.1678 5.45951 42.3598
1 43.702 6.46901 40.2649
1 38.0953 43.8294 4.21032
1 37.4585 42.7806 3.35192
1 36.0726 42.5921 3.4033
2 35.4569 43.1701 4.04119
1 35.427 41.6869 2.5933
2 34.3749 41.5508 2.60363
1 36.1789 40.8875 1.7223
2 35.6427 40.2528 1.0261
1 37.6243 41.0252 1.66469
1 38.2379 42.019 2.47061
2 39.3276 42.2045 2.43423
1 38.3357 40.2567 0.613029
1 40.3227 43.9229 6.59254
1 41.1682 42.9526 7.36081
1 40.9114 42.736 8.72038
2 40.0558 43.145 9.07056
1 41.6946 41.894 9.47437
2 41.5547 41.7995 10.5749
1 42.7382 41.2634 8.8847
2 43.2502 40.4713 9.47421
1 43.0524 41.4062 7.56887
1 42.2491 42.2555 6.78292
2 42.4843 42.3622 5.73907
1 44.0945 40.5748 6.96248
1 43.9929 4.06414 38.1277
1 42.8506 3.37625 37.5087
1 42.3083 3.92842 36.3092
2 42.7241 4.75044 35.8151
1 41.3324 3.2636 35.6223
2 41.1197 3.50373 34.6015
1 40.6785 2.12442 36.2294
2 39.7783 1.7459 35.7394
1 41.0211 1.69676 37.5213
1 42.1273 2.36868 38.1336
2 42.4538 1.99511 39.0767
1 40.3228 0.605999 38.2179
1 0.668303 6.80823 40.4343
1 1.93523 7.38738 41.0396
1 2.68019 8.39624 40.4521
2 2.36939 8.95631 39.5923
1 3.87649 8.86642 41.0944
2 4.47387 9.61294 40.5733
1 4.3169 8.17909 42.1634
2 5.161 8.53417 42.5973
1 3.63188 7.1663 42.8132
1 2.36349 6.83385 42.2677
2 1.77638 6.06403 42.7928
1 4.29708 6.51082 43.9848
1 6.595 4.40496 0.927115
1 7.25537 3.76958 2.1796
1 8.54539 4.25602 2.56402
2 9.09833 5.01534 2.05092
1 9.15936 3.77768 3.70431
2 10.1781 4.14874 4.04595
1 8.57351 2.73269 4.41757
2 9.09397 2.20161 5.12459
1 7.26782 2.28694 4.06187
1 6.56479 2.85131 2.97034
2 5.58227 2.58136 2.6157
1 6.66455 1.09307 4.71486
3 44.6956 5.87578 3.62874
3 44.1686 6.88609 5.50067
3 44.8223 3.71541 6.22275
3 44.0176 5.69264 6.77459
3 0.667681 4.36165 5.69925
3 -0.0405816 5.1569 7.65566
3 0.807046 5.26795 4.38927
3 0.101819 7.18046 5.15098
3 39.2079 4.02351 44.139
3 37.2945 4.80318 44.7616
3 38.5396 3.65922 -0.0580921
3 37.9196 5.74997 0.570324
3 41.006 5.9186 -0.0616927
3 39.0584 6.86632 0.506574
3 40.3432 5.31632 44.1828
3 39.4933 7.26137 44.7579
3 39.3495 44.0149 4.14926
3 37.3613 44.5568 4.91124
3 40.5294 44.1089 5.36892
3 39.5232 44.6783 7.22853
3 40.9683 -0.0467631 5.84294
3 39.0477 0.645949 6.59079
3 38.5094 0.0968328 3.57568
3 37.8318 0.738249 5.59879
3 44.102 4.0226 39.3789
3 44.7633 4.84182 37.4375
3 43.9425 5.2219 40.4393
3 44.4662 7.16586 39.4501
3 -0.216242 6.22885 41.1054
3 0.536324 6.80368 39.1641
3 0.199153 3.60397 38.967
3 0.698881 5.61033 38.1156
3 3.62414 5.84723 44.808
3 5.57998 6.48662 44.0595
3 4.1697 5.3485 0.564856
3 4.81534 7.34819 -0.15253
3 5.37678 4.20463 0.722019
3 7.27733 5.09248 0.15139
3 6.25248 3.5215 44.9179
3 6.83089 5.53542 44.1669
3 41.2167 44.1549 38.547
3 39.1653 43.4058 38.0982
3 39.1445 44.2621 41.2331
3 37.2271 44.7304 40.1855
3 39.4056 0.0375751 40.6914
3 37.4303 -0.627881 39.8745
3 40.5522 0.338211 39.4617
3 39.5466 -0.169102 37.5657
3 -0.971605 3.06367 3.05481
3 41.4704 2.8544 -0.967431
3 41.397 -0.80415 2.69912
3 -0.867871 3.12502 41.9436
3 3.07027 3.25678 45.3756
3 42.2213 45.0212 41.3876
4 -1.08145 4.38365 4.62694
4 -1.12464 6.73241 6.79584
4 40.044 4.34684 46.0601
4 37.9436 6.47295 45.8687
4 40.123 -1.10024 4.29474
4 37.9425 45.7967 6.54539
4 -1.10676 4.46695 40.4302
4 -1.19295 6.50361 38.0427
4 4.60762 4.38152 45.9929
4 6.46933 6.53944 46.0038
4 40.6125 45.3298 40.1639
4 38.1805 45.2959 38.2555
1 1.17469 37.5574 40.2477
1 2.24124 36.9331 41.1008
1 2.55064 35.6033 40.956
2 2.0263 35.0305 40.2009
1 3.46434 35.001 41.7949
2 3.67889 33.97 41.8028
1 4.06628 35.753 42.7758
2 4.75537 35.194 43.4459
1 3.80966 37.1135 42.975
1 2.89693 37.7048 42.0867
2 2.60008 38.7153 42.1939
1 4.3423 37.7812 44.1972
1 1.25601 40.038 37.9829
1 2.23088 40.9626 37.2745
1 2.38908 40.8239 35.9104
2 1.83045 40.0433 35.2601
1 3.18064 41.7009 35.1826
2 3.25703 41.6343 34.1066
1 3.91933 42.6935 35.8485
2 4.53973 43.3659 35.293
1 3.89807 42.7211 37.2521
1 3.01336 41.8996 37.9944
2 2.82379 42.0357 39.0705
1 4.48582 43.9627 37.9708
1 44.1548 39.8622 37.8231
1 42.8947 40.4637 37.2789
1 42.3075 39.869 36.1498
2 42.8269 39.0433 35.6553
1 40.971 40.292 35.8192
2 40.4458 39.7709 34.9703
1 40.3196 41.3427 36.4992
2 39.3072 41.6328 36.2838
1 41.0366 42.0777 37.4147
1 42.2981 41.6094 37.8667
2 42.7248 42.1943 38.6258
1 40.4138 43.2664 38.0464
1 44.4447 37.6098 40.4329
1 43.302 36.9894 41.1705
1 42.6745 35.9054 40.6063
2 43.0608 35.5866 39.6643
1 41.6261 35.2491 41.2005
2 41.0122 34.5517 40.7123
1 41.0294 35.7635 42.3348
2 40.2219 35.2059 42.7572
1 41.5873 36.8594 43.047
1 42.7338 37.5184 42.4035
2 43.1071 38.3965 42.9003
1 40.8357 37.4763 44.1828
1 6.50042 40.2244 0.912098
1 7.05626 40.7689 2.15022
1 8.08245 40.0972 2.80881
2 8.50086 39.2247 2.39968
1 8.36475 40.3914 4.14001
2 9.04326 39.8146 4.76881
1 7.83823 41.5548 4.67899
2 8.21791 41.8746 5.57572
1 6.98571 42.3905 3.95498
1 6.57762 41.9738 2.67251
2 5.81589 42.5477 2.16749
1 6.48986 43.6641 4.51445
1 6.54628 40.2585 44.1835
1 7.34207 41.0183 43.0952
1 8.57808 40.5178 42.6632
2 9.13829 39.7048 43.1163
1 9.21112 41.0625 41.5398
2 10.1665 40.6798 41.212
1 8.58875 42.1239 40.8886
2 9.09536 42.543 40.0306
1 7.39837 42.6224 41.2906
1 6.78803 42.1338 42.379
2 5.79642 42.4843 42.6874
1 6.82252 43.701 40.5149
1 4.19686 37.7202 1.02482
1 3.5577 37.1623 2.23789
1 4.33474 36.1812 2.90954
2 5.19709 35.8604 2.417
1 3.88208 35.495 4.09466
2 4.46543 34.6966 4.48336
1 2.71206 35.969 4.68312
2 2.35921 35.5295 5.62126
1 1.91382 36.9226 4.01666
1 2.33836 37.5263 2.77485
2 1.79245 38.3025 2.25441
1 0.700208 37.4715 4.67304
1 6.99973 0.757003 40.4926
1 7.56075 1.99357 41.0423
1 8.59457 2.72117 40.39
2 8.99721 2.31462 39.4526
1 9.11447 3.83607 41.041
2 9.82898 4.45301 40.5672
1 8.59542 4.34733 42.2206
2 8.9191 5.27358 42.6508
1 7.58353 3.65996 42.9108
1 7.16373 2.43791 42.3136
2 6.34497 1.85473 42.7447
1 6.93576 4.24249 44.095
1 4.61091 0.770048 38.2492
1 4.06325 2.09339 37.8477
1 4.91881 2.97209 37.2043
2 5.92447 2.71322 36.9807
1 4.52436 4.2989 36.9704
2 5.27235 5.04905 36.6312
1 3.24734 4.76416 37.3024
2 3.01132 5.82614 37.0864
1 2.3324 3.84085 37.8628
1 2.75125 2.50333 38.2178
2 1.92727 1.83863 38.4734
1 0.971082 4.36696 38.3019
1 0.107737 41.0282 6.85789
1 0.915314 42.0593 7.62076
1 0.983397 42.0069 9.02969
2 0.463583 41.2623 9.64279
1 1.71092 42.9559 9.75334
2 1.69072 42.9923 10.8677
1 2.52379 43.8251 9.07895
2 3.17582 44.4488 9.66021
1 2.53478 43.8561 7.72263
1 1.68972 43.025 6.99644
2 1.74377 43.0586 5.9153
1 3.55998 44.6418 6.94902
1 43.3599 38.2168 4.91147
1 42.0671 37.6626 4.37538
1 41.4718 36.5243 4.95016
2 41.7511 36.1416 5.88204
1 40.3221 35.9838 4.39603
2 39.7493 35.2141 4.92584
1 39.9114 36.3184 3.13422
2 39.1808 35.6838 2.60511
1 40.5785 37.3568 2.43931
1 41.6493 37.9606 3.05757
2 42.1847 38.7363 2.54435
1 40.1689 37.7407 1.05291
1 37.9589 40.4437 44.5617
1 37.157 41.2836 43.5962
1 35.7653 41.4218 43.672
2 35.1793 40.7606 44.361
1 35.0847 42.3587 42.9468
2 34.0042 42.442 42.9528
1 35.7861 43.2809 42.1025
2 35.1938 44.0295 41.6122
1 37.1838 43.1713 42.0184
1 37.8624 42.141 42.7108
2 38.9411 42.1572 42.6341
1 37.8613 44.1215 41.1214
3 1.06504 38.8215 40.2531
3 0.235605 36.8445 39.6887
3 1.16085 40.0117 39.2298
3 0.40188 39.3832 37.2859
3 44.9419 40.5812 38.5442
3 44.2965 38.5861 37.8323
3 45.2696 38.2787 41.1291
3 44.5202 37.6238 39.1469
3 5.85943 40.9173 0.0822739
3 6.52066 38.9758 0.749746
3 5.29611 40.4166 44.3433
3 7.14842 39.4187 44.907
3 4.3994 39.0395 44.2756
3 4.88241 37.0906 45.1118
3 3.51072 38.4547 0.248854
3 5.49284 37.7365 0.911113
3 6.41951 -0.0896675 41.1747
3 7.06341 0.618078 39.2489
3 3.93184 -0.017652 38.9859
3 5.9141 0.585059 38.0704
3 4.4832 44.0284 39.2142
3 5.19894 44.7725 37.3161
3 5.54984 43.9446 40.5949
3 7.47324 44.3886 39.603
3 -0.111797 41.1755 5.58056
3 -0.365793 40.0116 7.46364
3 0.0211914 38.3311 4.02574
3 0.522427 37.3204 5.96264
3 43.7755 39.3563 4.48419
3 44.063 37.6129 5.77345
3 44.2738 40.6128 5.68953
3 44.893 39.8396 7.66011
3 40.6085 38.8575 0.57318
3 39.2832 37.0423 0.396999
3 41.4505 38.244 44.9502
3 39.5967 37.1941 44.3849
3 39.1943 40.6349 44.708
3 37.3768 39.6025 45.2985
3 39.6372 40.3324 0.485549
3 37.6454 39.548 -0.204508
3 4.31516 0.726744 5.5583
3 4.89075 -0.175079 7.46386
3 5.43319 0.773763 4.4407
3 7.30961 0.360371 5.50206
3 5.83987 44.4912 3.78708
3 6.87548 44.0739 5.68571
3 3.36449 44.8753 5.71285
3 4.65722 45.0475 7.50261
3 -0.748375 41.4289 41.4024
3 2.66527 41.2481 -1.06745
3 3.52834 -0.80584 42.0075
3 -0.977071 40.9082 2.4343
3 42.3617 40.7779 45.7306
3 3.44674 45.7812 2.5936
4 -0.806965 39.8691 40.0837
4 -0.754202 37.7382 38.03
4 4.3084 39.9833 -1.07815
4 6.39548 37.8897 -1.07107
4 4.85715 -1.09431 40.4204
4 6.92305 -1.23033 38.1406
4 -1.22486 39.9494 4.34209
4 -1.23341 38.0572 6.95526
4 40.5831 39.7198 45.9546
4 38.2464 37.7206 45.9762
4 4.58279 -1.1609 4.45673
4 6.63617 -1.19539 6.7236
2 2.47315 41.9555 45.6287
2 2.0908 41.0849 -0.289475
2 41.1895 2.33429 -0.198705
2 42.3079 2.63621 45.8465
2 43.0925 45.426 41.1399
2 42.1874 44.3837 42.078
2 -0.215986 2.39517 41.8298
2 -1.0165 3.42459 42.8581
2 3.22753 45.0243 2.14762
2 3.16865 -0.400367 2.37736
2 -0.551098 3.39211 2.24177
2 45.5602 2.22191 2.91399
2 2.22956 3.6543 45.0702
2 3.209 2.31685 45.2362
2 -0.180913 41.4127 2.34195
2 45.6099 40.5686 1.62523
2 42.3254 -0.649674 2.97977
2 41.2113 -1.17543 1.84734
2 42.1345 41.5914 45.1676
2 43.0836 41.0125 -0.875719
2 2.55763 -0.790535 41.8392
2 3.92529 -0.601972 42.8688
2 -0.184023 42.1241 41.1471
2 -1.06429 41.4004 42.3143
1 44.1237 14.3552 17.56
1 43.2049 13.5839 18.4272
1 43.1455 12.1258 18.3371
2 43.7681 11.5123 17.6847
1 42.1745 11.4564 19.0008
2 41.9678 10.417 18.7478
1 41.3428 12.1545 19.8835
2 40.615 11.6384 20.4788
1 41.4125 13.5422 20.0637
1 42.3462 14.2496 19.2972
2 42.4363 15.3335 19.3724
1 40.4461 14.3282 20.9042
1 43.253 16.6777 14.4423
1 41.9418 17.1702 13.9906
1 41.1854 16.3197 13.2049
2 41.5536 15.4319 12.6657
1 39.859 16.7333 12.8162
2 39.315 16.1233 12.1182
1 39.3252 17.9285 13.2327
2 38.2995 18.2043 12.947
1 40.0844 18.8175 14.0479
1 41.4344 18.4514 14.3245
2 42.0306 19.0456 14.9682
1 39.4965 20.1067 14.4714
1 0.479488 16.6785 14.6011
1 1.59629 17.3441 13.9492
1 2.14165 16.7386 12.779
2 1.80641 15.7495 12.4123
1 3.15454 17.3809 12.0754
2 3.37184 17.0341 11.1374
1 3.76775 18.5091 12.5331
2 4.58379 18.9122 11.9468
1 3.28727 19.1495 13.7043
1 2.15189 18.5835 14.4218
2 1.79292 19.0493 15.2326
1 4.04375 20.2767 14.2965
1 0.297423 14.6754 17.0418
1 1.30641 13.9725 17.899
1 1.3511 12.6073 17.8719
2 0.686358 12.0357 17.268
1 2.27011 11.9234 18.6543
2 2.40761 10.8987 18.518
1 3.1698 12.6125 19.4126
2 3.80504 12.0426 20.1168
1 3.16585 13.9945 19.4595
1 2.14762 14.6934 18.69
2 2.07697 15.7797 18.7486
1 3.98942 14.6529 20.4912
1 38.1341 16.3416 25.0229
1 37.6605 16.8553 26.3431
1 36.7355 16.1582 27.1084
2 36.434 15.1985 26.7497
1 36.3479 16.5867 28.3721
2 35.73 15.9649 28.9539
1 36.8409 17.8196 28.8531
2 36.6191 18.2127 29.8274
1 37.8098 18.5622 28.156
1 38.2667 17.9943 26.9008
2 38.8894 18.6631 26.3391
1 38.355 19.8478 28.6422
1 37.3805 16.9601 20.7114
1 36.6867 17.7626 19.6574
1 35.4034 17.3799 19.1055
2 34.8327 16.5969 19.5783
1 34.8167 18.0494 18.0367
2 33.8381 17.7485 17.6578
1 35.5395 19.0458 17.4271
2 35.0273 19.5122 16.5814
1 36.7732 19.4714 17.8996
1 37.3446 18.8476 19.0286
2 38.4126 19.0996 19.3607
1 37.5988 20.4236 17.1474
1 40.3011 14.2224 23.9438
1 41.2371 13.4138 24.8537
1 41.2243 11.9801 24.9225
2 40.5506 11.4194 24.276
1 41.9374 11.3744 25.9287
2 41.7837 10.314 26.0419
1 42.8341 12.0555 26.7341
2 43.4359 11.46 27.405
1 42.9859 13.4451 26.6104
1 42.1303 14.1192 25.6924
2 42.1263 15.225 25.5799
1 43.9313 14.1841 27.4689
1 37.5238 24.2336 16.866
1 36.9354 25.3966 17.6119
1 35.7461 26.0128 17.1342
2 35.115 25.5461 16.3294
1 35.2563 27.2244 17.7126
2 34.4375 27.8154 17.272
1 35.9537 27.7967 18.7686
2 35.5882 28.7382 19.1585
1 37.0703 27.1883 19.3193
1 37.6085 26.0353 18.6747
2 38.5553 25.6863 19.078
1 37.7788 27.8188 20.4565
1 40.0129 24.183 14.474
1 40.8982 25.1003 13.7021
1 40.5193 25.5954 12.4638
2 39.6855 25.0979 12.0186
1 41.0377 26.8418 11.9592
2 40.7438 27.1343 10.9709
1 41.9903 27.4701 12.6909
2 42.3929 28.3995 12.2786
1 42.4246 26.9739 13.9177
1 41.8407 25.7738 14.4239
2 42.0544 25.4299 15.4051
1 43.634 27.6274 14.5926
1 44.006 16.5468 30.876
1 42.7933 17.1364 31.5502
1 42.1212 16.5084 32.5613
2 42.4214 15.5709 32.9423
1 40.9211 17.0971 33.0777
2 40.3274 16.5763 33.846
1 40.4699 18.3156 32.6053
2 39.5534 18.6583 33.1224
1 41.0246 18.9054 31.5007
1 42.2102 18.3152 30.9786
2 42.6511 18.7227 30.0851
1 40.4506 20.1838 31.027
1 -0.0242536 14.2903 27.2211
1 0.803532 13.6352 26.1134
1 0.626744 12.2652 25.8134
2 -0.171032 11.7088 26.2409
1 1.5044 11.5407 24.983
2 1.32173 10.4761 24.8359
1 2.50514 12.2934 24.3163
2 3.14901 11.7251 23.6468
1 2.62298 13.6721 24.4845
1 1.7526 14.3331 25.3923
2 1.81299 15.4258 25.5564
1 3.59034 14.428 23.6039
1 6.58826 16.5624 20.0544
1 7.05783 17.1056 18.7926
1 8.05106 16.4063 18.0192
2 8.40267 15.4044 18.366
1 8.44864 16.879 16.7587
2 9.15204 16.3648 16.2166
1 7.96608 18.0931 16.2705
2 8.37051 18.4414 15.312
1 6.9864 18.8237 16.9733
1 6.52233 18.2673 18.2191
2 5.88435 18.838 18.8816
1 6.41098 20.0286 16.42
3 44.1252 15.6278 17.6478
3 44.7263 13.7569 16.5996
3 44.0903 17.4377 15.0386
3 43.4876 15.405 14.4054
3 0.12192 17.0954 15.7459
3 -0.224006 15.805 13.9829
3 0.160419 15.9282 17.052
3 -0.522949 13.9615 16.3685
3 39.2431 16.7199 24.5073
3 37.4067 15.5831 24.3141
3 38.2635 17.5607 21.3789
3 37.0522 15.7747 20.9887
3 40.7049 15.5357 21.2437
3 39.4023 13.7649 21.3856
3 40.4086 15.4664 23.9113
3 39.3466 13.655 23.3016
3 38.7759 24.0703 16.8353
3 36.7993 23.557 16.0257
3 39.9852 24.1714 15.7399
3 39.2175 23.3818 13.8602
3 40.2379 21.0715 14.8459
3 38.1823 20.2462 14.5313
3 38.5272 21.1208 17.6705
3 37.3031 20.6341 15.9094
3 44.7838 17.2881 30.2219
3 44.1368 15.2537 30.8332
3 44.0607 15.4248 27.4203
3 44.638 13.5279 28.302
3 0.138212 15.5402 27.4106
3 -0.607042 13.5884 28.0884
3 0.646546 16.5954 28.6494
3 0.605993 15.1842 30.4031
3 3.53346 15.6947 23.6277
3 4.66285 13.8848 23.0521
3 4.03265 15.938 20.6185
3 4.71295 13.8892 21.2649
3 5.46966 16.8757 20.4954
3 7.25221 15.7365 20.7577
3 6.26143 17.3456 23.7882
3 7.11781 15.3102 24.094
3 41.365 22.4873 30.3883
3 39.7591 23.4775 31.5062
3 39.2037 23.7878 28.2612
3 37.323 23.321 29.2333
3 39.213 20.4735 27.9591
3 37.949 20.2934 29.8
3 41.1191 20.989 30.2509
3 39.1712 20.3215 31.0734
3 45.2757 18.6348 17.8763
3 41.1258 18.5549 22.4993
3 41.5774 22.061 17.6103
3 44.9286 17.8888 26.8206
3 3.94666 18.9442 22.5452
3 41.3595 22.2468 27.0181
4 45.3965 16.9794 16.614
4 45.3222 14.5304 14.6857
4 39.8434 16.875 22.5094
4 37.7032 14.5318 22.5349
4 39.8309 22.2882 16.4628
4 37.5523 22.2615 14.575
4 45.5979 16.5461 28.3027
4 45.7164 14.2122 30.0428
4 4.66853 16.9595 22.4744
4 6.54155 14.4922 22.2893
4 40.1902 22.0823 28.6447
4 38.1318 22.1814 30.8333
1 0.993213 29.5949 28.3303
1 2.25331 30.1757 27.8004
1 3.0665 30.9619 28.6567
2 2.6537 31.3037 29.6091
1 4.34393 31.4391 28.2476
2 4.90618 32.1074 28.9191
1 4.8378 31.0838 26.9703
2 5.82003 31.3741 26.6864
1 4.04388 30.3665 26.0704
1 2.78625 29.8688 26.4922
2 2.14617 29.2896 25.8259
1 4.56676 29.876 24.7772
1 0.613841 27.0957 30.3399
1 1.6643 26.2596 31.0377
1 1.74371 26.3196 32.4582
2 1.00627 26.838 33.064
1 2.7 25.5894 33.132
2 2.74047 25.6017 34.2124
1 3.55466 24.734 32.4466
2 4.32091 24.0819 32.9947
1 3.52196 24.6715 31.0167
1 2.61334 25.4656 30.252
2 2.55403 25.417 29.1562
1 4.46805 23.7395 30.2596
1 44.4548 26.9235 30.9496
1 43.5102 26.1124 31.8027
1 43.5144 26.2075 33.2251
2 44.0344 26.9506 33.6781
1 42.7517 25.3323 33.9444
2 42.7969 25.4429 35.0516
1 41.9993 24.3699 33.3419
2 41.5248 23.644 33.9204
1 41.9553 24.2197 31.8993
1 42.7763 25.0785 31.1458
2 42.7126 24.9293 30.0362
1 41.0101 23.3807 31.2026
1 43.8743 29.7094 28.0169
1 42.711 30.4634 27.3893
1 42.4047 31.7879 27.7463
2 43.0376 32.216 28.6066
1 41.5508 32.5636 27.0217
2 41.3309 33.5847 27.3132
1 40.8248 31.9713 25.9911
2 40.0937 32.5238 25.4629
1 41.0589 30.6474 25.6305
1 42.0791 29.9315 26.2574
2 42.3635 28.947 25.9814
1 40.3547 30.0096 24.4804
1 6.82008 27.5344 20.5344
1 7.40961 26.7289 19.421
1 8.84218 26.6415 19.3461
2 9.48765 27.2609 19.9264
1 9.47185 25.8082 18.449
2 10.5957 25.6185 18.5119
1 8.73343 24.941 17.6236
2 9.33213 24.2575 16.9902
1 7.32325 24.8781 17.7006
1 6.67303 25.8009 18.5932
2 5.64653 25.7457 18.7091
1 6.52543 23.9815 16.8431
1 6.78757 27.4701 24.4161
1 7.38457 26.7931 25.5618
1 8.63669 27.2108 26.0089
2 9.11203 28.085 25.6169
1 9.29818 26.5402 27.054
2 10.2457 26.8829 27.3412
1 8.69835 25.4683 27.6678
2 9.17783 24.9252 28.515
1 7.42785 24.9741 27.2443
1 6.76297 25.7202 26.2016
2 5.92483 25.2825 25.6916
1 6.74897 23.8953 27.9164
1 4.16952 29.9252 20.6381
1 3.28207 30.6608 19.6397
1 3.37905 32.0603 19.5215
2 4.10861 32.5784 20.15
1 2.58029 32.705 18.5676
2 2.70082 33.8305 18.4222
1 1.69452 32.0455 17.7764
2 1.11277 32.6231 17.1456
1 1.56788 30.6011 17.8708
1 2.43547 29.9425 18.7803
2 2.45745 28.8062 18.7934
1 0.526513 29.9457 17.0124
1 7.10983 19.7928 28.0887
1 7.68032 18.6289 27.4733
1 8.53757 17.7763 28.2042
2 8.81983 18.1418 29.1706
1 9.00587 16.5879 27.6409
2 9.76178 15.991 28.1329
1 8.59359 16.1868 26.3489
2 8.87735 15.2184 26.0012
1 7.71964 17.0359 25.62
1 7.39852 18.3145 26.1378
2 6.76994 19.064 25.5586
1 6.96888 16.5236 24.4418
1 4.54397 19.7811 30.24
1 4.10038 18.3785 30.3452
1 4.90908 17.5495 31.2071
2 5.80868 17.9961 31.7026
1 4.53294 16.2194 31.4264
2 5.15284 15.6636 32.1064
1 3.23827 15.7519 30.9732
2 2.87452 14.7929 31.2635
1 2.52331 16.5328 30.0675
1 2.90387 17.8538 29.8011
2 2.30047 18.4866 29.1838
1 1.18488 16.1506 29.7169
1 0.748027 27.9282 14.5328
1 1.91651 27.2749 13.8257
1 2.27534 27.652 12.5227
2 1.65822 28.3707 12.0197
1 3.31645 26.986 11.8326
2 3.50715 27.253 10.7659
1 3.95364 25.9024 12.4384
2 4.72639 25.4067 11.9435
1 3.5664 25.4543 13.735
1 2.58606 26.214 14.4334
2 2.34427 25.8417 15.4213
1 4.1196 24.1872 14.3046
1 44.4454 30.4314 17.565
1 43.6721 31.2157 18.6055
1 43.5716 32.589 18.6355
2 44.1759 33.2486 18.0447
1 42.6386 33.1836 19.5337
2 42.5691 34.2716 19.6914
1 41.8273 32.3974 20.3422
2 41.0065 32.8518 20.8765
1 41.9739 30.9933 20.3991
1 42.973 30.4522 19.5918
2 43.0471 29.3647 19.6521
1 41.0333 30.1067 21.1173
1 38.0773 27.5582 24.8056
1 37.4558 26.9828 26.0334
1 36.2799 27.5315 26.6144
2 35.791 28.3754 26.2401
1 35.6418 26.869 27.6591
2 34.6732 27.2142 27.9244
1 36.1169 25.6784 28.1863
2 35.6375 25.1517 29.0882
1 37.3361 25.1607 27.7416
1 37.9737 25.7597 26.6273
2 38.8138 25.2494 26.2366
1 37.9927 24.0311 28.4381
3 0.608517 28.429 27.9741
3 0.436579 30.2044 29.285
3 0.609972 27.1168 29.0664
3 -0.165132 27.837 31.0147
3 44.4928 26.7236 29.6978
3 45.2525 27.7794 31.4591
3 44.567 28.9154 27.3077
3 44.1839 29.9541 29.2197
3 5.54474 27.5471 20.6252
3 7.55313 28.2008 21.3419
3 6.13719 26.8954 23.5029
3 6.79109 28.7595 24.4117
3 3.76906 29.3628 23.9097
3 5.83409 29.9304 24.5487
3 4.23403 28.6586 20.6662
3 4.9882 30.5425 21.4063
3 6.42565 20.6319 27.4193
3 7.11022 19.9443 29.3831
3 3.81436 20.6521 29.5732
3 5.79458 20.0205 30.426
3 4.37952 23.6239 28.9645
3 5.15831 22.9136 30.9444
3 5.48555 23.7896 27.9148
3 7.46212 23.1027 28.6853
3 0.356226 27.3889 15.5635
3 0.163363 28.9245 14.0442
3 0.415869 28.6472 17.0012
3 -0.341381 30.664 16.3917
3 44.5775 29.187 17.733
3 45.0639 31.0309 16.5888
3 44.4128 26.9036 15.2594
3 43.8667 28.8935 14.4122
3 41.3671 28.9368 21.4933
3 39.9902 30.5958 21.6198
3 40.3391 28.7367 24.3595
3 39.8418 30.69 23.541
3 39.3467 27.4657 24.6729
3 37.4425 28.4264 24.0907
3 38.641 27.1045 21.1331
3 37.4765 29.0167 20.7782
3 3.40421 21.1199 14.9802
3 5.30653 20.3853 14.0584
3 5.77192 20.8702 17.2274
3 6.52162 20.2996 15.1385
3 5.24266 24.0959 16.8077
3 7.04195 23.2599 15.9411
3 4.05052 24.0352 15.586
3 4.81421 23.4182 13.589
3 45.1939 25.9475 26.9174
3 2.89976 26.511 22.8726
3 3.90187 21.5137 26.2207
3 45.2351 26.2038 18.1884
3 41.2702 25.893 22.4567
3 2.85278 21.9771 17.9195
4 45.712 27.5152 28.2261
4 -1.18462 29.6676 30.4948
4 4.54856 27.9047 22.5321
4 6.69037 29.8214 22.5666
4 4.73119 21.8618 28.0433
4 6.81841 21.9106 30.2912
4 45.6007 27.6546 16.6766
4 45.6065 30.0761 14.6874
4 40.129 27.595 22.5517
4 38.1203 29.8775 22.5108
4 4.28003 22.1766 16.4889
4 6.38499 22.2277 14.2273
2 2.12692 26.5883 22.2487
2 2.92272 25.6932 23.4543
2 41.6875 18.7158 21.7444
2 40.9982 19.3037 23.1141
2 40.8661 22.1339 26.2196
2 42.2368 22.6235 27.037
2 44.0934 18.3253 26.8747
2 45.3871 17.9026 25.9804
2 2.7027 21.0724 18.2723
2 2.47492 22.8181 18.2906
2 44.4709 19.0225 18.2566
2 -0.98047 19.0271 18.1793
2 3.37173 19.2995 21.7935
2 3.93452 19.4325 23.3511
2 44.4519 25.6956 18.2997
2 -1.10684 26.2309 18.8528
2 41.6059 21.6047 18.4613
2 42.3254 22.5652 17.3574
2 42.2193 25.9479 22.4721
2 40.7615 25.05 22.2398
2 4.3822 21.5362 25.3805
2 3.02078 21.8611 26.2927
2 44.7306 25.1471 27.2655
2 45.3873 26.0369 26.0202
1 30.2492 43.9654 16.7531
1 30.9005 42.7948 17.4625
1 32.1784 42.3741 17.022
2 32.6472 42.8118 16.1589
1 32.8162 41.2744 17.614
2 33.6754 40.9252 17.1893
1 32.2163 40.5988 18.6973
2 32.6722 39.7318 19.1088
1 30.8935 40.9477 19.148
1 30.2541 42.0748 18.519
2 29.2076 42.3353 18.7808
1 30.2754 40.2614 20.2956
1 27.7377 43.6749 14.6883
1 26.8229 42.5841 14.0769
1 26.9712 42.3141 12.6586
2 27.5981 42.8735 12.057
1 26.1372 41.3606 12.0071
2 26.2312 41.2102 10.9233
1 25.1985 40.6902 12.7432
2 24.5754 39.9915 12.2321
1 24.9592 40.9654 14.0907
1 25.8822 41.8049 14.7638
2 25.8012 41.9223 15.8159
1 23.9033 40.2388 14.836
1 28.3468 1.08645 14.5468
1 27.8408 2.41861 13.9867
1 28.6564 3.1727 13.1842
2 29.6213 2.7295 12.8546
1 28.1182 4.33124 12.5569
2 28.7648 4.95042 11.8954
1 26.8322 4.7852 12.9262
2 26.3952 5.72656 12.6079
1 26.0105 4.03296 13.7693
1 26.5291 2.83958 14.2748
2 25.975 2.30772 15.0375
1 24.7024 4.57549 14.2725
1 30.1913 0.576503 17.1287
1 30.7995 1.77289 17.817
1 31.911 2.39096 17.1973
2 32.334 2.07224 16.2778
1 32.4642 3.60954 17.7407
2 33.1874 4.16531 17.2091
1 31.9302 4.16856 18.8565
2 32.3339 5.14143 19.2143
1 30.7756 3.57454 19.4784
1 30.3267 2.2759 19.0172
2 29.5241 1.7706 19.563
1 30.0951 4.27801 20.5795
1 28.0029 37.7989 24.1176
1 27.1738 37.1232 25.1582
1 27.52 35.8433 25.6527
2 28.4302 35.3284 25.1924
1 26.87 35.2851 26.7357
2 27.1997 34.2971 27.1433
1 25.8273 35.9934 27.3589
2 25.3907 35.6308 28.3087
1 25.4195 37.2243 26.8842
1 26.1007 37.8352 25.7883
2 25.947 38.8682 25.516
1 24.4068 38.0687 27.5966
1 28.1986 37.7849 20.0954
1 27.6597 37.3973 18.7244
1 28.3758 36.537 17.8857
2 29.3379 36.1055 18.1274
1 27.8226 36.1399 16.6495
2 28.3382 35.4705 16.0233
1 26.6141 36.6614 16.2585
2 26.2246 36.4375 15.2448
1 25.7832 37.4208 17.1348
1 26.3727 37.8744 18.3228
2 25.8164 38.5028 19.0728
1 24.4645 37.8599 16.8115
1 30.4213 40.2514 24.1835
1 31.0029 40.8309 25.3862
1 32.2616 40.4381 25.8676
2 32.9042 39.6681 25.4906
1 32.7843 41.026 27.0142
2 33.8178 40.8005 27.2553
1 32.1019 42.0337 27.659
2 32.5983 42.5567 28.4869
1 30.8483 42.4246 27.2359
1 30.3278 41.8249 26.078
2 29.3978 42.2112 25.607
1 30.2242 43.5895 27.8492
1 20.2133 37.331 17.149
1 18.9049 36.8156 17.6565
1 18.1282 35.9555 16.8958
2 18.456 35.5514 15.9832
1 16.8017 35.5759 17.2845
2 16.172 34.909 16.7126
1 16.2304 36.1352 18.4441
2 15.2216 35.9015 18.7294
1 17.075 36.9138 19.2779
1 18.386 37.2902 18.8275
2 18.9306 38.0507 19.3748
1 16.4376 37.5692 20.4765
1 20.8558 40.4282 14.5286
1 20.0369 41.418 13.7284
1 20.0155 41.2593 12.3007
2 20.6127 40.4895 11.7846
1 19.3301 42.1551 11.5294
2 19.3601 42.0551 10.4659
1 18.4654 43.1372 12.1442
2 17.9478 43.8711 11.5817
1 18.4392 43.2285 13.5303
1 19.184 42.3367 14.3138
2 19.2917 42.5286 15.3149
1 17.5223 44.2073 14.1817
1 27.5114 44.1747 30.5216
1 26.4617 43.32 31.1872
1 26.5294 43.1798 32.5746
2 27.3053 43.6737 33.144
1 25.637 42.3136 33.2095
2 25.7803 42.0858 34.2709
1 24.5868 41.6951 32.5216
2 24.032 40.9437 33.0156
1 24.5413 41.7373 31.1317
1 25.4619 42.5761 30.4508
2 25.5676 42.5549 29.3387
1 23.7327 40.7704 30.411
1 30.2802 0.992641 28.1822
1 30.9144 2.15953 27.5076
1 32.1923 2.60588 27.9084
2 32.7555 2.10874 28.7013
1 32.7789 3.66941 27.1971
2 33.8274 3.99196 27.4508
1 31.9881 4.41089 26.2041
2 32.4869 5.24109 25.7765
1 30.764 3.93967 25.7506
1 30.188 2.83522 26.4666
2 29.2416 2.46379 26.1297
1 30.1201 4.50861 24.5446
1 27.8662 6.80535 20.5605
1 27.1869 7.32383 19.3386
1 27.6497 8.57991 18.8737
2 28.5518 8.99636 19.1946
1 26.9838 9.1486 17.7817
2 27.3556 9.99327 17.2744
1 25.9151 8.52056 17.2146
2 25.4341 8.93285 16.3494
1 25.4432 7.30689 17.7107
1 26.0592 6.70536 18.7972
2 25.6654 5.81342 19.2953
1 24.4182 6.53117 16.9946
3 28.9721 44.1987 16.9464
3 30.8876 44.6567 15.9208
3 27.6899 43.9499 15.95
3 28.4229 44.4457 13.9726
3 27.5735 0.334897 15.2044
3 29.5646 0.74994 14.4813
3 29.4188 -0.149559 17.7403
3 30.4437 0.345317 15.9022
3 27.9433 39.0861 24.0717
3 28.7713 37.1115 23.3899
3 27.4496 38.3416 20.9257
3 29.4518 37.7589 20.3047
3 29.4574 40.9441 21.0466
3 30.4988 39.0157 20.5122
3 29.1668 40.2811 24.024
3 31.0749 39.3512 23.6609
3 20.9448 38.062 17.8808
3 20.5338 37.1347 15.9139
3 20.965 40.578 15.7728
3 21.3601 39.4599 13.9117
3 23.7739 40.3248 16.1146
3 23.2654 39.3484 14.204
3 24.055 39.0017 17.2306
3 23.852 37.2176 15.915
3 27.4314 44.4397 29.3178
3 28.4572 44.6932 31.2139
3 29.6678 44.4487 27.1173
3 30.4246 43.7854 29.1079
3 29.0599 0.707331 27.9308
3 30.9129 0.283886 29.0613
3 28.016 0.515307 29.0781
3 28.528 -0.467308 31.0466
3 28.8637 4.30465 24.3711
3 30.8057 5.24133 23.7333
3 29.4474 3.58096 21.4204
3 30.1649 5.56107 20.6735
3 27.1381 6.17074 21.3918
3 29.1725 6.69423 20.6049
3 27.7621 5.61294 24.2888
3 28.592 7.59293 23.7252
3 21.3633 41.3318 29.1439
3 20.8632 39.5975 30.4082
3 20.712 38.7605 27.4373
3 20.3109 38.0659 29.5429
3 23.9901 39.16 26.9742
3 23.7781 37.6182 28.5864
3 23.198 41.1017 29.2886
3 23.4674 39.6076 30.8658
3 26.2118 -0.741508 17.6803
3 26.5303 41.3405 22.1481
3 21.5485 40.8754 18.6552
3 26.6555 45.4015 26.7101
3 26.3433 3.32479 22.4261
3 22.1592 41.4404 25.9775
4 28.0423 -1.02439 16.5676
4 30.0036 45.7922 14.477
4 28.126 39.9664 22.2302
4 30.3202 37.8812 22.3422
4 22.0132 39.677 17.1422
4 22.1515 37.676 14.7469
4 28.2718 45.7487 27.8833
4 30.2501 45.546 30.3112
4 28.0386 4.51619 22.4781
4 29.9964 6.73678 22.4833
4 22.2917 40.1424 27.6026
4 22.3891 38.0713 30.0727
1 14.3489 0.871585 27.4575
1 13.8813 2.2018 26.8941
1 12.9487 2.90568 27.5727
2 12.4851 2.56188 28.4521
1 12.5069 4.2079 27.2435
2 11.714 4.617 27.8606
1 12.9927 4.74479 26.041
2 12.6253 5.71053 25.6875
1 13.969 4.03939 25.3278
1 14.4143 2.70564 25.7422
2 15.1299 2.16356 25.1102
1 14.4797 4.61267 24.0731
1 16.6045 1.19415 29.7859
1 17.1364 2.39339 30.3313
1 16.32 3.22429 31.1468
2 15.2586 2.9762 31.289
1 16.7175 4.50867 31.4841
2 16.0106 5.20083 32.0697
1 18.006 4.85551 31.2609
2 18.3321 5.86495 31.6165
1 18.8693 4.06081 30.5
1 18.4827 2.78957 30.1181
2 19.2464 2.14794 29.666
1 20.2227 4.57683 30.1329
1 16.8903 44.1088 30.0315
1 17.6739 43.0344 30.788
1 17.5557 42.9134 32.1457
2 16.8329 43.508 32.6788
1 18.3726 42.0206 32.7957
2 18.2138 41.8046 33.8072
1 19.4297 41.4004 32.1452
2 20.0141 40.7145 32.6869
1 19.604 41.5476 30.8131
1 18.7459 42.3664 30.0907
2 18.8696 42.5678 29.0241
1 20.6517 40.7901 30.0476
1 14.222 43.9618 27.762
1 13.5041 42.8589 27.0455
1 12.1858 42.5545 27.3189
2 11.6356 42.9237 28.1418
1 11.4919 41.5273 26.6718
2 10.4377 41.2663 26.8463
1 12.1494 40.8289 25.6263
2 11.548 40.0994 25.1536
1 13.4518 41.1692 25.2519
1 14.1385 42.2175 25.9586
2 15.2383 42.4159 25.7268
1 14.1661 40.4275 24.1876
1 17.1654 6.90691 20.3517
1 18.0307 7.57623 19.354
1 18.1107 8.98725 19.2255
2 17.4532 9.60432 19.8177
1 19.0028 9.62359 18.3675
2 19.0173 10.7098 18.2849
1 19.9113 8.81476 17.5997
2 20.6221 9.19555 16.9018
1 19.9569 7.46361 17.7385
1 18.969 6.81978 18.5577
2 19.0253 5.72294 18.7104
1 20.8687 6.61189 16.8698
1 17.0221 6.82799 24.0738